
                                 *****************
                                 * O   R   C   A *
                                 *****************

           --- An Ab Initio, DFT and Semiempirical electronic structure package ---

                  #######################################################
                  #                        -***-                        #
                  #          Department of theory and spectroscopy      #
                  #               Directorship: Frank Neese             #
                  #        Max Planck Institute fuer Kohlenforschung    #
                  #                Kaiser Wilhelm Platz 1               #
                  #                 D-45470 Muelheim/Ruhr               #
                  #                      Germany                        #
                  #                                                     #
                  #                  All rights reserved                #
                  #                        -***-                        #
                  #######################################################


                         Program Version 4.2.1 -  RELEASE  -


 With contributions from (in alphabetic order):
   Daniel Aravena         : Magnetic Suceptibility
   Michael Atanasov       : Ab Initio Ligand Field Theory (pilot matlab implementation)
   Alexander A. Auer      : GIAO ZORA, VPT2
   Ute Becker             : Parallelization
   Giovanni Bistoni       : ED, misc. LED, open-shell LED, HFLD
   Martin Brehm           : Molecular dynamics
   Dmytro Bykov           : SCF Hessian
   Vijay G. Chilkuri      : MRCI spin determinant printing, contributions to CSF-ICE
   Dipayan Datta          : RHF DLPNO-CCSD density
   Achintya Kumar Dutta   : EOM-CC, STEOM-CC
   Dmitry Ganyushin       : Spin-Orbit,Spin-Spin,Magnetic field MRCI
   Miquel Garcia          : C-PCM Hessian, Gaussian charge scheme
   Yang Guo               : DLPNO-NEVPT2, CIM, IAO-localization
   Andreas Hansen         : Spin unrestricted coupled pair/coupled cluster methods
   Benjamin Helmich-Paris : CASSCF linear response (MC-RPA)
   Lee Huntington         : MR-EOM, pCC
   Robert Izsak           : Overlap fitted RIJCOSX, COSX-SCS-MP3, EOM
   Christian Kollmar      : KDIIS, OOCD, Brueckner-CCSD(T), CCSD density
   Simone Kossmann        : Meta GGA functionals, TD-DFT gradient, OOMP2, MP2 Hessian
   Martin Krupicka        : AUTO-CI
   Lucas Lang             : DCDCAS
   Dagmar Lenk            : GEPOL surface, SMD
   Dimitrios Liakos       : Extrapolation schemes; Compound Job, initial MDCI parallelization
   Dimitrios Manganas     : Further ROCIS development; embedding schemes
   Dimitrios Pantazis     : SARC Basis sets
   Taras Petrenko         : DFT Hessian,TD-DFT gradient, ASA, ECA, R-Raman, ABS, FL, XAS/XES, NRVS
   Peter Pinski           : DLPNO-MP2, DLPNO-MP2 Gradient
   Christoph Reimann      : Effective Core Potentials
   Marius Retegan         : Local ZFS, SOC
   Christoph Riplinger    : Optimizer, TS searches, QM/MM, DLPNO-CCSD(T), (RO)-DLPNO pert. Triples
   Tobias Risthaus        : Range-separated hybrids, TD-DFT gradient, RPA, STAB
   Michael Roemelt        : Original ROCIS implementation
   Masaaki Saitow         : Open-shell DLPNO-CCSD energy and density
   Barbara Sandhoefer     : DKH picture change effects
   Avijit Sen             : IP-ROCIS
   Kantharuban Sivalingam : CASSCF convergence, NEVPT2, FIC-MRCI
   Bernardo de Souza      : ESD, SOC TD-DFT
   Georgi Stoychev        : AutoAux, RI-MP2 NMR
   Willem Van den Heuvel  : Paramagnetic NMR
   Boris Wezisla          : Elementary symmetry handling
   Frank Wennmohs         : Technical directorship


 We gratefully acknowledge several colleagues who have allowed us to
 interface, adapt or use parts of their codes:
   Stefan Grimme, W. Hujo, H. Kruse,             : VdW corrections, initial TS optimization,
                  C. Bannwarth                     DFT functionals, gCP, sTDA/sTD-DF
   Ed Valeev, F. Pavosevic, A. Kumar             : LibInt (2-el integral package), F12 methods
   Garnet Chan, S. Sharma, J. Yang, R. Olivares  : DMRG
   Ulf Ekstrom                                   : XCFun DFT Library
   Mihaly Kallay                                 : mrcc  (arbitrary order and MRCC methods)
   Andreas Klamt, Michael Diedenhofen            : otool_cosmo (COSMO solvation model)
   Jiri Pittner, Ondrej Demel                    : Mk-CCSD
   Frank Weinhold                                : gennbo (NPA and NBO analysis)
   Christopher J. Cramer and Donald G. Truhlar   : smd solvation model
   Lars Goerigk                                  : TD-DFT with DH, B97 family of functionals
   V. Asgeirsson, H. Jonsson                     : NEB implementation
   FAccTs GmbH                                   : IRC, NEB, NEB-TS, Multilevel, MM, QM/MM, CI optimization
   S Lehtola, MJT Oliveira, MAL Marques          : LibXC Library


 Your calculation uses the libint2 library for the computation of 2-el integrals
 For citations please refer to: http://libint.valeyev.net

 Your ORCA version has been built with support for libXC version: 4.2.3
 For citations please refer to: https://tddft.org/programs/libxc/

 This ORCA versions uses:
   CBLAS   interface :  Fast vector & matrix operations
   LAPACKE interface :  Fast linear algebra routines
   SCALAPACK package :  Parallel linear algebra routines




***************************************
The coordinates will be read from file: acetone_MP2_aug-cc-pVTZ_OPT.xyz
***************************************


----- Orbital basis set information -----
Your calculation utilizes the basis: aug-cc-pVTZ 
    H, B-Ne : Obtained from the ccRepo (grant-hill.group.shef.ac.uk/ccrepo) Feb. 2017
              R. A. Kendall, T. H. Dunning, Jr., R. J. Harrison, J. Chem. Phys. 96, 6796 (1992)
         He : Obtained from the ccRepo (grant-hill.group.shef.ac.uk/ccrepo) Feb. 2017
              D. E. Woon, T. H. Dunning, Jr., J. Chem. Phys. 100, 2975 (1994)
  Li-Be, Na : Obtained from the ccRepo (grant-hill.group.shef.ac.uk/ccrepo) Feb. 2017
              B. P. Prascher, D. E. Woon, K. A. Peterson, T. H. Dunning, Jr., A. K. Wilson, Theor. Chem. Acc. 128, 69 (2011)
         Mg : Obtained from the Peterson Research Group Website (tyr0.chem.wsu.edu/~kipeters) Feb. 2017
              B. P. Prascher, D. E. Woon, K. A. Peterson, T. H. Dunning, Jr., A. K. Wilson, Theor. Chem. Acc. 128, 69 (2011)
      Al-Ar : Obtained from the ccRepo (grant-hill.group.shef.ac.uk/ccrepo) Feb. 2017
              D. E. Woon, T. H. Dunning, Jr., J. Chem. Phys. 98, 1358 (1993)
      Sc-Zn : Obtained from the ccRepo (grant-hill.group.shef.ac.uk/ccrepo) Feb. 2017
              N. B. Balabanov, K. A. Peterson, J. Chem. Phys. 123, 064107 (2005)
              N. B. Balabanov, K. A. Peterson, J. Chem. Phys. 125, 074110 (2006)
      Ga-Kr : Obtained from the ccRepo (grant-hill.group.shef.ac.uk/ccrepo) Feb. 2017
              A. K. Wilson, D. E. Woon, K. A. Peterson, T. H. Dunning, Jr., J. Chem. Phys. 110, 7667 (1999)
     Ag, Au : Obtained from the Peterson Research Group Website (tyr0.chem.wsu.edu/~kipeters) Feb. 2017
              K. A. Peterson, C. Puzzarini, Theor. Chem. Acc. 114, 283 (2005)

----- AuxC basis set information -----
Your calculation utilizes the auxiliary basis: aug-cc-pVTZ/C 
  H-He, B-F, Al-Ar, Ga-Kr : Obtained from the EMSL Basis Set Exchange (bse.pnl.gov) Feb. 2017
                            F. Weigend, A. Kohn, C. Hattig, J. Chem. Phys. 116, 3175 (2002)
                   Be, Mg : Obtained from the TURBOMOLE 7.0 basis set library
                            C. Haettig, Phys. Chem. Chem. Phys. 7, 59 (2005)
                       Ne : Obtained from the EMSL Basis Set Exchange (bse.pnl.gov) Feb. 2017
                            C. Haettig, Phys. Chem. Chem. Phys. 7, 59 (2005)
                            F. Weigend, A. Kohn, C. Hattig, J. Chem. Phys. 116, 3175 (2002)
                    Sc-Zn : Obtained from the EMSL Basis Set Exchange (bse.pnl.gov) Feb. 2017
                            J. G. Hill, J. A. Platts, J. Chem. Phys. 128, 044104 (2008)

================================================================================
                                        WARNINGS
                       Please study these warnings very carefully!
================================================================================


WARNING: MDCI localization with Augmented Hessian Foster-Boys
  ===> : Switching off randomization!

WARNING: Post HF methods need fully converged wavefunctions
  ===> : Setting SCFConvForced true
         You can overwrite this default with %scf ConvForced false 


INFO   : the flag for use of LIBINT has been found!

================================================================================
                                       INPUT FILE
================================================================================
NAME = acetone_DLPNO-CCSD_aug-cc-pVTZ_SPE.inp
|  1> # acetone DLPNO-CCSD/aug-cc-pVTZ SPE
|  2> 
|  3> ! DLPNO-CCSD aug-cc-pVTZ aug-cc-pVTZ/C TightSCF PAL8
|  4> %maxcore 1000
|  5> 
|  6> * xyzfile 0 1 acetone_MP2_aug-cc-pVTZ_OPT.xyz
|  7> 
|  8> 
|  9>                          ****END OF INPUT****
================================================================================

                       ****************************
                       * Single Point Calculation *
                       ****************************

---------------------------------
CARTESIAN COORDINATES (ANGSTROEM)
---------------------------------
  C      0.102899   -1.357246    0.703875
  C      0.101304   -0.259029   -0.330422
  C      1.324607   -0.166171   -1.208353
  O     -0.836850    0.511284   -0.449993
  H     -0.820512   -1.333011    1.274331
  H      0.213734   -2.326245    0.215665
  H      0.956381   -1.235461    1.372003
  H      1.465350   -1.103400   -1.748173
  H      2.211979   -0.014612   -0.592532
  H      1.217048    0.653982   -1.911542

----------------------------
CARTESIAN COORDINATES (A.U.)
----------------------------
  NO LB      ZA    FRAG     MASS         X           Y           Z
   0 C     6.0000    0    12.011    0.194451   -2.564823    1.330132
   1 C     6.0000    0    12.011    0.191437   -0.489494   -0.624407
   2 C     6.0000    0    12.011    2.503144   -0.314017   -2.283457
   3 O     8.0000    0    15.999   -1.581417    0.966186   -0.850363
   4 H     1.0000    0     1.008   -1.550543   -2.519026    2.408137
   5 H     1.0000    0     1.008    0.403898   -4.395965    0.407549
   6 H     1.0000    0     1.008    1.807297   -2.334683    2.592709
   7 H     1.0000    0     1.008    2.769111   -2.085125   -3.303569
   8 H     1.0000    0     1.008    4.180035   -0.027614   -1.119723
   9 H     1.0000    0     1.008    2.299888    1.235846   -3.612290

--------------------------------
INTERNAL COORDINATES (ANGSTROEM)
--------------------------------
 C      0   0   0     0.000000000000     0.00000000     0.00000000
 C      1   0   0     1.508593107096     0.00000000     0.00000000
 C      2   1   0     1.508593894754   116.29169977     0.00000000
 O      2   1   3     1.219759114353   121.85409138   180.01741645
 H      1   2   3     1.085677291914   110.06545242   180.12297423
 H      1   2   3     1.090684120096   109.87530200   301.36099615
 H      1   2   3     1.090713798748   109.84750301    58.92319374
 H      3   2   1     1.090694287834   109.86301915    58.79629472
 H      3   2   1     1.090704108618   109.85850032   301.23575618
 H      3   2   1     1.085676028468   110.06540872   180.01862861

---------------------------
INTERNAL COORDINATES (A.U.)
---------------------------
 C      0   0   0     0.000000000000     0.00000000     0.00000000
 C      1   0   0     2.850827819933     0.00000000     0.00000000
 C      2   1   0     2.850829308390   116.29169977     0.00000000
 O      2   1   3     2.305010675482   121.85409138   180.01741645
 H      1   2   3     2.051632751534   110.06545242   180.12297423
 H      1   2   3     2.061094285598   109.87530200   301.36099615
 H      1   2   3     2.061150370123   109.84750301    58.92319374
 H      3   2   1     2.061113499838   109.86301915    58.79629472
 H      3   2   1     2.061132058430   109.85850032   301.23575618
 H      3   2   1     2.051630363968   110.06540872   180.01862861

---------------------
BASIS SET INFORMATION
---------------------
There are 3 groups of distinct atoms

 Group   1 Type C   : 19s6p3d2f contracted to 5s4p3d2f pattern {88111/3111/111/11}
 Group   2 Type O   : 19s6p3d2f contracted to 5s4p3d2f pattern {88111/3111/111/11}
 Group   3 Type H   : 6s3p2d contracted to 4s3p2d pattern {3111/111/11}

Atom   0C    basis set group =>   1
Atom   1C    basis set group =>   1
Atom   2C    basis set group =>   1
Atom   3O    basis set group =>   2
Atom   4H    basis set group =>   3
Atom   5H    basis set group =>   3
Atom   6H    basis set group =>   3
Atom   7H    basis set group =>   3
Atom   8H    basis set group =>   3
Atom   9H    basis set group =>   3
---------------------------------
AUXILIARY/C BASIS SET INFORMATION
---------------------------------
There are 3 groups of distinct atoms

 Group   1 Type C   : 9s7p6d4f2g contracted to 9s7p6d4f2g pattern {111111111/1111111/111111/1111/11}
 Group   2 Type O   : 9s7p6d4f2g contracted to 9s7p6d4f2g pattern {111111111/1111111/111111/1111/11}
 Group   3 Type H   : 5s4p3d2f contracted to 5s4p3d2f pattern {11111/1111/111/11}

Atom   0C    basis set group =>   1
Atom   1C    basis set group =>   1
Atom   2C    basis set group =>   1
Atom   3O    basis set group =>   2
Atom   4H    basis set group =>   3
Atom   5H    basis set group =>   3
Atom   6H    basis set group =>   3
Atom   7H    basis set group =>   3
Atom   8H    basis set group =>   3
Atom   9H    basis set group =>   3


           ************************************************************
           *        Program running with 8 parallel MPI-processes     *
           *              working on a common directory               *
           ************************************************************
------------------------------------------------------------------------------
                           ORCA GTO INTEGRAL CALCULATION
------------------------------------------------------------------------------

                         BASIS SET STATISTICS AND STARTUP INFO

 # of primitive gaussian shells          ...  186
 # of primitive gaussian functions       ...  414
 # of contracted shells                  ...  110
 # of contracted basis functions         ...  322
 Highest angular momentum                ...    3
 Maximum contraction depth               ...    8
 Integral package used                   ... LIBINT
 Integral threshhold            Thresh   ...  2.500e-11
 Primitive cut-off              TCut     ...  2.500e-12


------------------------------ INTEGRAL EVALUATION ----------------------------


 * One electron integrals 
 Pre-screening matrix                    ... done
 Shell pair data                         ... done (   0.002 sec)



           ************************************************************
           *        Program running with 8 parallel MPI-processes     *
           *              working on a common directory               *
           ************************************************************
-------------------------------------------------------------------------------
                                 ORCA SCF
-------------------------------------------------------------------------------

------------
SCF SETTINGS
------------
Hamiltonian:
 Ab initio Hamiltonian  Method          .... Hartree-Fock(GTOs)


General Settings:
 Integral files         IntName         .... acetone_DLPNO-CCSD_aug-cc-pVTZ_SPE
 Hartree-Fock type      HFTyp           .... RHF
 Total Charge           Charge          ....    0
 Multiplicity           Mult            ....    1
 Number of Electrons    NEL             ....   32
 Basis Dimension        Dim             ....  322
 Nuclear Repulsion      ENuc            ....    119.5363959901 Eh

Convergence Acceleration:
 DIIS                   CNVDIIS         .... on
   Start iteration      DIISMaxIt       ....    12
   Startup error        DIISStart       ....  0.200000
   # of expansion vecs  DIISMaxEq       ....     5
   Bias factor          DIISBfac        ....   1.050
   Max. coefficient     DIISMaxC        ....  10.000
 Newton-Raphson         CNVNR           .... off
 SOSCF                  CNVSOSCF        .... on
   Start iteration      SOSCFMaxIt      ....   150
   Startup grad/error   SOSCFStart      ....  0.003300
 Level Shifting         CNVShift        .... on
   Level shift para.    LevelShift      ....    0.2500
   Turn off err/grad.   ShiftErr        ....    0.0010
 Zerner damping         CNVZerner       .... off
 Static damping         CNVDamp         .... on
   Fraction old density DampFac         ....    0.7000
   Max. Damping (<1)    DampMax         ....    0.9800
   Min. Damping (>=0)   DampMin         ....    0.0000
   Turn off err/grad.   DampErr         ....    0.1000
 Fernandez-Rico         CNVRico         .... off

SCF Procedure:
 Maximum # iterations   MaxIter         ....   125
 SCF integral mode      SCFMode         .... Direct
   Integral package                     .... LIBINT
 Reset frequency        DirectResetFreq ....    20
 Integral Threshold     Thresh          ....  2.500e-11 Eh
 Primitive CutOff       TCut            ....  2.500e-12 Eh

Convergence Tolerance:
 Convergence Check Mode ConvCheckMode   .... Total+1el-Energy
 Convergence forced     ConvForced      .... 1
 Energy Change          TolE            ....  1.000e-08 Eh
 1-El. energy change                    ....  1.000e-05 Eh
 Orbital Gradient       TolG            ....  1.000e-05
 Orbital Rotation angle TolX            ....  1.000e-05
 DIIS Error             TolErr          ....  5.000e-07


Diagonalization of the overlap matrix:
Smallest eigenvalue                        ... 1.913e-05
Time for diagonalization                   ...    0.025 sec
Threshold for overlap eigenvalues          ... 1.000e-08
Number of eigenvalues below threshold      ... 0
Time for construction of square roots      ...    0.027 sec
Total time needed                          ...    0.052 sec

-------------------
DFT GRID GENERATION
-------------------

General Integration Accuracy     IntAcc      ...  4.340
Radial Grid Type                 RadialGrid  ... Gauss-Chebyshev
Angular Grid (max. acc.)         AngularGrid ... Lebedev-110
Angular grid pruning method      GridPruning ... 3 (G Style)
Weight generation scheme         WeightScheme... Becke
Basis function cutoff            BFCut       ...    1.0000e-11
Integration weight cutoff        WCut        ...    1.0000e-14
Grids for H and He will be reduced by one unit

# of grid points (after initial pruning)     ...  11448 (   0.0 sec)
# of grid points (after weights+screening)   ...  10879 (   0.0 sec)
nearest neighbour list constructed           ...    0.0 sec
Grid point re-assignment to atoms done       ...    0.0 sec
Grid point division into batches done        ...    0.0 sec
Reduced shell lists constructed in    0.0 sec

Total number of grid points                  ...    10879
Total number of batches                      ...      175
Average number of points per batch           ...       62
Average number of grid points per atom       ...     1088
Average number of shells per batch           ...   101.57 (92.33%)
Average number of basis functions per batch  ...   298.26 (92.63%)
Average number of large shells per batch     ...    93.61 (92.17%)
Average number of large basis fcns per batch ...   275.09 (92.23%)
Maximum spatial batch extension              ...   3.06,  3.98,  3.31 au
Average spatial batch extension              ...   0.20,  0.22,  0.22 au

Time for grid setup =    0.027 sec

------------------------------
INITIAL GUESS: MODEL POTENTIAL
------------------------------
Loading Hartree-Fock densities                     ... done
Calculating cut-offs                               ... done
Setting up the integral package                    ... done
Initializing the effective Hamiltonian             ... done
Starting the Coulomb interaction                   ... done (   0.0 sec)
Reading the grid                                   ... done
Mapping shells                                     ... done
Starting the XC term evaluation                    ... done (   0.0 sec)
Transforming the Hamiltonian                       ... done (   0.0 sec)
Diagonalizing the Hamiltonian                      ... done (   0.0 sec)
Back transforming the eigenvectors                 ... done (   0.0 sec)
Now organizing SCF variables                       ... done
                      ------------------
                      INITIAL GUESS DONE (   0.2 sec)
                      ------------------
--------------
SCF ITERATIONS
--------------
ITER       Energy         Delta-E        Max-DP      RMS-DP      [F,P]     Damp
               ***  Starting incremental Fock matrix formation  ***
  0   -191.7967512411   0.000000000000 0.02763097  0.00064256  0.2967408 0.7000
  1   -191.8808084435  -0.084057202397 0.01994599  0.00049712  0.1748587 0.7000
                               ***Turning on DIIS***
  2   -191.9313018015  -0.050493357992 0.01469627  0.00034680  0.1095451 0.7000
  3   -192.4235114179  -0.492209616391 0.04138719  0.00086767  0.0825893 0.0000
  4   -191.9858622542   0.437649163654 0.01323663  0.00015707  0.0079745 0.0000
  5   -192.0332817814  -0.047419527182 0.00435444  0.00006194  0.0038004 0.0000
                      *** Initiating the SOSCF procedure ***
                           *** Shutting down DIIS ***
                      *** Re-Reading the Fockian *** 
                      *** Removing any level shift *** 
ITER      Energy       Delta-E        Grad      Rot      Max-DP    RMS-DP
  6   -192.03337428  -0.0000925024  0.001841  0.001841  0.001762  0.000027
               *** Restarting incremental Fock matrix formation ***
  7   -192.03579186  -0.0024175714  0.000514  0.000802  0.000728  0.000015
  8   -192.03579924  -0.0000073846  0.000457  0.001400  0.000626  0.000015
  9   -192.03580191  -0.0000026740  0.000126  0.000162  0.000218  0.000004
 10   -192.03580224  -0.0000003301  0.000044  0.000064  0.000074  0.000001
 11   -192.03580228  -0.0000000312  0.000012  0.000027  0.000035  0.000000
                  ***Gradient check signals convergence***
              ***Rediagonalizing the Fockian in SOSCF/NRSCF***

               *****************************************************
               *                     SUCCESS                       *
               *           SCF CONVERGED AFTER  12 CYCLES          *
               *****************************************************


----------------
TOTAL SCF ENERGY
----------------

Total Energy       :         -192.03580228 Eh           -5225.55984 eV

Components:
Nuclear Repulsion  :          119.53639599 Eh            3252.75070 eV
Electronic Energy  :         -311.57219827 Eh           -8478.31054 eV
One Electron Energy:         -497.22540540 Eh          -13530.19114 eV
Two Electron Energy:          185.65320713 Eh            5051.88060 eV

Virial components:
Potential Energy   :         -383.78987720 Eh          -10443.45349 eV
Kinetic Energy     :          191.75407492 Eh            5217.89365 eV
Virial Ratio       :            2.00146921


---------------
SCF CONVERGENCE
---------------

  Last Energy change         ...   -4.8990e-09  Tolerance :   1.0000e-08
  Last MAX-Density change    ...    6.6787e-06  Tolerance :   1.0000e-07
  Last RMS-Density change    ...    1.2805e-07  Tolerance :   5.0000e-09
  Last Orbital Gradient      ...    1.7060e-06  Tolerance :   1.0000e-05
  Last Orbital Rotation      ...    3.2299e-06  Tolerance :   1.0000e-05

             **** THE GBW FILE WAS UPDATED (acetone_DLPNO-CCSD_aug-cc-pVTZ_SPE.gbw) ****
             **** DENSITY FILE WAS UPDATED (acetone_DLPNO-CCSD_aug-cc-pVTZ_SPE.scfp) ****
             **** ENERGY FILE WAS UPDATED (acetone_DLPNO-CCSD_aug-cc-pVTZ_SPE.en.tmp) ****
             **** THE GBW FILE WAS UPDATED (acetone_DLPNO-CCSD_aug-cc-pVTZ_SPE.gbw) ****
             **** DENSITY FILE WAS UPDATED (acetone_DLPNO-CCSD_aug-cc-pVTZ_SPE.scfp) ****
----------------
ORBITAL ENERGIES
----------------

  NO   OCC          E(Eh)            E(eV) 
   0   2.0000     -20.545211      -559.0636 
   1   2.0000     -11.333241      -308.3932 
   2   2.0000     -11.235394      -305.7306 
   3   2.0000     -11.235373      -305.7300 
   4   2.0000      -1.380865       -37.5752 
   5   2.0000      -1.045777       -28.4570 
   6   2.0000      -0.969535       -26.3824 
   7   2.0000      -0.742363       -20.2007 
   8   2.0000      -0.644526       -17.5385 
   9   2.0000      -0.637396       -17.3444 
  10   2.0000      -0.625373       -17.0173 
  11   2.0000      -0.562387       -15.3033 
  12   2.0000      -0.561634       -15.2828 
  13   2.0000      -0.538908       -14.6644 
  14   2.0000      -0.486437       -13.2366 
  15   2.0000      -0.415123       -11.2961 
  16   0.0000       0.025697         0.6993 
  17   0.0000       0.036625         0.9966 
  18   0.0000       0.039556         1.0764 
  19   0.0000       0.049701         1.3524 
  20   0.0000       0.061276         1.6674 
  21   0.0000       0.062195         1.6924 
  22   0.0000       0.077669         2.1135 
  23   0.0000       0.103653         2.8205 
  24   0.0000       0.111868         3.0441 
  25   0.0000       0.120978         3.2920 
  26   0.0000       0.129113         3.5133 
  27   0.0000       0.130308         3.5459 
  28   0.0000       0.130573         3.5531 
  29   0.0000       0.135889         3.6977 
  30   0.0000       0.145520         3.9598 
  31   0.0000       0.150531         4.0961 
  32   0.0000       0.154165         4.1950 
  33   0.0000       0.179056         4.8724 
  34   0.0000       0.192817         5.2468 
  35   0.0000       0.195344         5.3156 
  36   0.0000       0.219656         5.9771 
  37   0.0000       0.231187         6.2909 
  38   0.0000       0.239595         6.5197 
  39   0.0000       0.249276         6.7832 
  40   0.0000       0.259543         7.0625 
  41   0.0000       0.284120         7.7313 
  42   0.0000       0.284384         7.7385 
  43   0.0000       0.296141         8.0584 
  44   0.0000       0.314227         8.5505 
  45   0.0000       0.327865         8.9217 
  46   0.0000       0.332040         9.0353 
  47   0.0000       0.335807         9.1378 
  48   0.0000       0.352638         9.5958 
  49   0.0000       0.353452         9.6179 
  50   0.0000       0.353768         9.6265 
  51   0.0000       0.357724         9.7342 
  52   0.0000       0.359019         9.7694 
  53   0.0000       0.370065        10.0700 
  54   0.0000       0.372382        10.1330 
  55   0.0000       0.396823        10.7981 
  56   0.0000       0.397315        10.8115 
  57   0.0000       0.405204        11.0262 
  58   0.0000       0.419239        11.4081 
  59   0.0000       0.423186        11.5155 
  60   0.0000       0.425955        11.5908 
  61   0.0000       0.431594        11.7443 
  62   0.0000       0.437712        11.9108 
  63   0.0000       0.442442        12.0395 
  64   0.0000       0.473108        12.8739 
  65   0.0000       0.476168        12.9572 
  66   0.0000       0.476951        12.9785 
  67   0.0000       0.486613        13.2414 
  68   0.0000       0.494705        13.4616 
  69   0.0000       0.504987        13.7414 
  70   0.0000       0.515845        14.0369 
  71   0.0000       0.534525        14.5452 
  72   0.0000       0.541858        14.7447 
  73   0.0000       0.567625        15.4459 
  74   0.0000       0.591969        16.1083 
  75   0.0000       0.594450        16.1758 
  76   0.0000       0.595133        16.1944 
  77   0.0000       0.604624        16.4526 
  78   0.0000       0.621442        16.9103 
  79   0.0000       0.649204        17.6657 
  80   0.0000       0.658332        17.9141 
  81   0.0000       0.718644        19.5553 
  82   0.0000       0.752811        20.4850 
  83   0.0000       0.757836        20.6218 
  84   0.0000       0.765151        20.8208 
  85   0.0000       0.772689        21.0259 
  86   0.0000       0.784489        21.3470 
  87   0.0000       0.788473        21.4554 
  88   0.0000       0.818075        22.2610 
  89   0.0000       0.833161        22.6715 
  90   0.0000       0.834281        22.7019 
  91   0.0000       0.835305        22.7298 
  92   0.0000       0.850747        23.1500 
  93   0.0000       0.882524        24.0147 
  94   0.0000       0.883389        24.0382 
  95   0.0000       0.888077        24.1658 
  96   0.0000       0.897734        24.4286 
  97   0.0000       0.898311        24.4443 
  98   0.0000       0.900706        24.5095 
  99   0.0000       0.913340        24.8532 
 100   0.0000       0.918228        24.9862 
 101   0.0000       0.934466        25.4281 
 102   0.0000       0.943721        25.6800 
 103   0.0000       0.951341        25.8873 
 104   0.0000       0.976778        26.5795 
 105   0.0000       0.997840        27.1526 
 106   0.0000       1.003727        27.3128 
 107   0.0000       1.023619        27.8541 
 108   0.0000       1.027120        27.9494 
 109   0.0000       1.028197        27.9787 
 110   0.0000       1.034399        28.1474 
 111   0.0000       1.060421        28.8555 
 112   0.0000       1.082713        29.4621 
 113   0.0000       1.083728        29.4897 
 114   0.0000       1.093236        29.7485 
 115   0.0000       1.096154        29.8279 
 116   0.0000       1.106675        30.1142 
 117   0.0000       1.128374        30.7046 
 118   0.0000       1.138471        30.9794 
 119   0.0000       1.144017        31.1303 
 120   0.0000       1.174241        31.9527 
 121   0.0000       1.181570        32.1522 
 122   0.0000       1.186134        32.2763 
 123   0.0000       1.204606        32.7790 
 124   0.0000       1.207584        32.8600 
 125   0.0000       1.235057        33.6076 
 126   0.0000       1.239576        33.7306 
 127   0.0000       1.249004        33.9871 
 128   0.0000       1.267266        34.4841 
 129   0.0000       1.268769        34.5250 
 130   0.0000       1.291734        35.1499 
 131   0.0000       1.326360        36.0921 
 132   0.0000       1.336024        36.3551 
 133   0.0000       1.352766        36.8106 
 134   0.0000       1.356754        36.9192 
 135   0.0000       1.401781        38.1444 
 136   0.0000       1.415244        38.5107 
 137   0.0000       1.435349        39.0578 
 138   0.0000       1.476083        40.1663 
 139   0.0000       1.479626        40.2627 
 140   0.0000       1.484794        40.4033 
 141   0.0000       1.521729        41.4084 
 142   0.0000       1.531516        41.6747 
 143   0.0000       1.534665        41.7604 
 144   0.0000       1.547783        42.1173 
 145   0.0000       1.572417        42.7876 
 146   0.0000       1.601251        43.5723 
 147   0.0000       1.604158        43.6514 
 148   0.0000       1.607486        43.7419 
 149   0.0000       1.638933        44.5976 
 150   0.0000       1.668868        45.4122 
 151   0.0000       1.671626        45.4873 
 152   0.0000       1.682879        45.7935 
 153   0.0000       1.691811        46.0365 
 154   0.0000       1.702915        46.3387 
 155   0.0000       1.710071        46.5334 
 156   0.0000       1.767116        48.0857 
 157   0.0000       1.770329        48.1731 
 158   0.0000       1.784596        48.5613 
 159   0.0000       1.787857        48.6501 
 160   0.0000       1.794934        48.8426 
 161   0.0000       1.826457        49.7004 
 162   0.0000       1.837741        50.0075 
 163   0.0000       1.861218        50.6463 
 164   0.0000       1.867683        50.8222 
 165   0.0000       1.894335        51.5475 
 166   0.0000       1.940730        52.8099 
 167   0.0000       1.946571        52.9689 
 168   0.0000       1.946799        52.9751 
 169   0.0000       1.986473        54.0547 
 170   0.0000       1.991438        54.1898 
 171   0.0000       2.009502        54.6813 
 172   0.0000       2.042564        55.5810 
 173   0.0000       2.082287        56.6619 
 174   0.0000       2.115761        57.5728 
 175   0.0000       2.161641        58.8212 
 176   0.0000       2.178303        59.2746 
 177   0.0000       2.193748        59.6949 
 178   0.0000       2.196871        59.7799 
 179   0.0000       2.198782        59.8319 
 180   0.0000       2.224410        60.5293 
 181   0.0000       2.228253        60.6338 
 182   0.0000       2.251320        61.2615 
 183   0.0000       2.310049        62.8596 
 184   0.0000       2.348873        63.9161 
 185   0.0000       2.361239        64.2526 
 186   0.0000       2.387136        64.9573 
 187   0.0000       2.441884        66.4470 
 188   0.0000       2.488643        67.7194 
 189   0.0000       2.514639        68.4268 
 190   0.0000       2.525611        68.7254 
 191   0.0000       2.634523        71.6890 
 192   0.0000       2.657217        72.3066 
 193   0.0000       2.658292        72.3358 
 194   0.0000       2.675626        72.8075 
 195   0.0000       2.691886        73.2500 
 196   0.0000       2.783551        75.7443 
 197   0.0000       2.813998        76.5728 
 198   0.0000       2.874401        78.2164 
 199   0.0000       2.950611        80.2902 
 200   0.0000       2.964010        80.6548 
 201   0.0000       3.009792        81.9006 
 202   0.0000       3.127265        85.0972 
 203   0.0000       3.149594        85.7048 
 204   0.0000       3.181733        86.5793 
 205   0.0000       3.187728        86.7425 
 206   0.0000       3.304157        89.9107 
 207   0.0000       3.345532        91.0365 
 208   0.0000       3.389357        92.2291 
 209   0.0000       3.398569        92.4798 
 210   0.0000       3.420667        93.0811 
 211   0.0000       3.422025        93.1180 
 212   0.0000       3.458939        94.1225 
 213   0.0000       3.476903        94.6113 
 214   0.0000       3.509753        95.5052 
 215   0.0000       3.543214        96.4158 
 216   0.0000       3.587125        97.6106 
 217   0.0000       3.593287        97.7783 
 218   0.0000       3.603690        98.0614 
 219   0.0000       3.616747        98.4167 
 220   0.0000       3.666112        99.7600 
 221   0.0000       3.676050       100.0304 
 222   0.0000       3.688324       100.3644 
 223   0.0000       3.691284       100.4450 
 224   0.0000       3.708677       100.9182 
 225   0.0000       3.783109       102.9436 
 226   0.0000       3.801152       103.4346 
 227   0.0000       3.877110       105.5015 
 228   0.0000       3.877319       105.5072 
 229   0.0000       3.915669       106.5508 
 230   0.0000       3.931664       106.9860 
 231   0.0000       3.943279       107.3021 
 232   0.0000       3.956266       107.6555 
 233   0.0000       3.962651       107.8292 
 234   0.0000       3.969994       108.0290 
 235   0.0000       3.984473       108.4230 
 236   0.0000       4.027782       109.6015 
 237   0.0000       4.058747       110.4441 
 238   0.0000       4.093906       111.4008 
 239   0.0000       4.100779       111.5879 
 240   0.0000       4.113833       111.9431 
 241   0.0000       4.133706       112.4839 
 242   0.0000       4.149619       112.9169 
 243   0.0000       4.168057       113.4186 
 244   0.0000       4.181286       113.7786 
 245   0.0000       4.187139       113.9378 
 246   0.0000       4.223635       114.9309 
 247   0.0000       4.245859       115.5357 
 248   0.0000       4.308427       117.2383 
 249   0.0000       4.369098       118.8892 
 250   0.0000       4.387627       119.3934 
 251   0.0000       4.440407       120.8296 
 252   0.0000       4.449269       121.0708 
 253   0.0000       4.454883       121.2235 
 254   0.0000       4.468117       121.5836 
 255   0.0000       4.522803       123.0717 
 256   0.0000       4.550242       123.8184 
 257   0.0000       4.620927       125.7418 
 258   0.0000       4.636375       126.1622 
 259   0.0000       4.678580       127.3106 
 260   0.0000       4.700901       127.9180 
 261   0.0000       4.738071       128.9295 
 262   0.0000       4.749993       129.2539 
 263   0.0000       4.795124       130.4820 
 264   0.0000       4.838792       131.6702 
 265   0.0000       4.844154       131.8161 
 266   0.0000       4.845836       131.8619 
 267   0.0000       4.849030       131.9488 
 268   0.0000       4.916777       133.7923 
 269   0.0000       4.943235       134.5123 
 270   0.0000       4.989536       135.7722 
 271   0.0000       4.990656       135.8027 
 272   0.0000       5.052001       137.4719 
 273   0.0000       5.121326       139.3584 
 274   0.0000       5.164106       140.5225 
 275   0.0000       5.175670       140.8371 
 276   0.0000       5.221725       142.0904 
 277   0.0000       5.224695       142.1712 
 278   0.0000       5.287155       143.8708 
 279   0.0000       5.321091       144.7942 
 280   0.0000       5.370149       146.1292 
 281   0.0000       5.372909       146.2043 
 282   0.0000       5.403571       147.0386 
 283   0.0000       5.412579       147.2838 
 284   0.0000       5.455042       148.4392 
 285   0.0000       5.548236       150.9752 
 286   0.0000       5.619674       152.9191 
 287   0.0000       5.627783       153.1398 
 288   0.0000       5.667052       154.2083 
 289   0.0000       5.713435       155.4705 
 290   0.0000       5.731288       155.9563 
 291   0.0000       5.762289       156.7999 
 292   0.0000       5.887726       160.2132 
 293   0.0000       5.936148       161.5308 
 294   0.0000       6.001043       163.2967 
 295   0.0000       6.011420       163.5791 
 296   0.0000       6.125445       166.6818 
 297   0.0000       6.139134       167.0543 
 298   0.0000       6.139680       167.0692 
 299   0.0000       6.162121       167.6798 
 300   0.0000       6.264390       170.4627 
 301   0.0000       6.434497       175.0916 
 302   0.0000       6.672121       181.5576 
 303   0.0000       6.682272       181.8339 
 304   0.0000       6.717192       182.7841 
 305   0.0000       6.730395       183.1434 
 306   0.0000       6.732919       183.2120 
 307   0.0000       6.776617       184.4011 
 308   0.0000       7.038770       191.5347 
 309   0.0000       7.065876       192.2723 
 310   0.0000       7.249762       197.2761 
 311   0.0000       7.359560       200.2638 
 312   0.0000       7.456041       202.8892 
 313   0.0000       7.503823       204.1894 
 314   0.0000       7.584830       206.3937 
 315   0.0000       7.685863       209.1430 
 316   0.0000       7.833139       213.1505 
 317   0.0000       7.945392       216.2051 
 318   0.0000      15.180168       413.0734 
 319   0.0000      16.960324       461.5139 
 320   0.0000      17.345484       471.9946 
 321   0.0000      19.506775       530.8063 

                    ********************************
                    * MULLIKEN POPULATION ANALYSIS *
                    ********************************

-----------------------
MULLIKEN ATOMIC CHARGES
-----------------------
   0 C :   -0.787169
   1 C :    0.489590
   2 C :   -0.787172
   3 O :   -0.733265
   4 H :    0.288039
   5 H :    0.310588
   6 H :    0.310380
   7 H :    0.310475
   8 H :    0.310491
   9 H :    0.288043
Sum of atomic charges:   -0.0000000

--------------------------------
MULLIKEN REDUCED ORBITAL CHARGES
--------------------------------
  0 C s       :     3.169040  s :     3.169040
      pz      :     1.101973  p :     3.464843
      px      :     1.279500
      py      :     1.083370
      dz2     :     0.008352  d :     0.147258
      dxz     :     0.051545
      dyz     :     0.028676
      dx2y2   :     0.050278
      dxy     :     0.008406
      f0      :    -0.000245  f :     0.006028
      f+1     :     0.001312
      f-1     :    -0.000559
      f+2     :     0.004531
      f-2     :    -0.000503
      f+3     :    -0.000196
      f-3     :     0.001689
  1 C s       :     3.284746  s :     3.284746
      pz      :     0.742973  p :     2.107790
      px      :     0.695646
      py      :     0.669170
      dz2     :     0.008115  d :     0.102160
      dxz     :     0.030921
      dyz     :     0.027182
      dx2y2   :     0.049899
      dxy     :    -0.013956
      f0      :     0.004210  f :     0.015714
      f+1     :     0.000899
      f-1     :     0.000433
      f+2     :     0.000463
      f-2     :     0.000544
      f+3     :     0.005867
      f-3     :     0.003297
  2 C s       :     3.169043  s :     3.169043
      pz      :     1.147395  p :     3.464842
      px      :     1.052277
      py      :     1.265170
      dz2     :     0.007683  d :     0.147258
      dxz     :     0.037486
      dyz     :     0.046597
      dx2y2   :     0.045895
      dxy     :     0.009598
      f0      :    -0.000198  f :     0.006029
      f+1     :     0.000216
      f-1     :     0.000443
      f+2     :     0.004281
      f-2     :     0.001103
      f+3     :     0.000360
      f-3     :    -0.000177
  3 O s       :     4.003410  s :     4.003410
      pz      :     1.700734  p :     4.673766
      px      :     1.483472
      py      :     1.489560
      dz2     :     0.003750  d :     0.050609
      dxz     :     0.011668
      dyz     :     0.006772
      dx2y2   :     0.018606
      dxy     :     0.009813
      f0      :     0.000924  f :     0.005481
      f+1     :     0.000308
      f-1     :     0.000259
      f+2     :     0.000268
      f-2     :     0.001168
      f+3     :     0.001754
      f-3     :     0.000800
  4 H s       :     0.649660  s :     0.649660
      pz      :     0.023224  p :     0.056607
      px      :     0.018142
      py      :     0.015241
      dz2     :     0.001342  d :     0.005694
      dxz     :     0.000294
      dyz     :     0.001202
      dx2y2   :     0.000493
      dxy     :     0.002363
  5 H s       :     0.635780  s :     0.635780
      pz      :     0.008356  p :     0.047157
      px      :     0.016818
      py      :     0.021983
      dz2     :     0.000641  d :     0.006475
      dxz     :     0.001054
      dyz     :     0.001943
      dx2y2   :     0.000580
      dxy     :     0.002257
  6 H s       :     0.635991  s :     0.635991
      pz      :     0.018688  p :     0.047150
      px      :     0.017550
      py      :     0.010912
      dz2     :     0.001760  d :     0.006479
      dxz     :    -0.000845
      dyz     :     0.002867
      dx2y2   :     0.000983
      dxy     :     0.001715
  7 H s       :     0.635938  s :     0.635938
      pz      :     0.017817  p :     0.047109
      px      :     0.012574
      py      :     0.016718
      dz2     :     0.001093  d :     0.006478
      dxz     :     0.002238
      dyz     :     0.000086
      dx2y2   :     0.001148
      dxy     :     0.001913
  8 H s       :     0.635836  s :     0.635836
      pz      :     0.009348  p :     0.047197
      px      :     0.021092
      py      :     0.016758
      dz2     :     0.001849  d :     0.006476
      dxz     :     0.000292
      dyz     :     0.001296
      dx2y2   :     0.001613
      dxy     :     0.001425
  9 H s       :     0.649655  s :     0.649655
      pz      :     0.024092  p :     0.056608
      px      :     0.013733
      py      :     0.018784
      dz2     :     0.001999  d :     0.005694
      dxz     :     0.001708
      dyz     :    -0.000820
      dx2y2   :     0.001235
      dxy     :     0.001572


                     *******************************
                     * LOEWDIN POPULATION ANALYSIS *
                     *******************************

----------------------
LOEWDIN ATOMIC CHARGES
----------------------
   0 C :    0.578842
   1 C :   -0.539260
   2 C :    0.578844
   3 O :    0.446901
   4 H :   -0.183014
   5 H :   -0.174863
   6 H :   -0.174785
   7 H :   -0.174839
   8 H :   -0.174811
   9 H :   -0.183014

-------------------------------
LOEWDIN REDUCED ORBITAL CHARGES
-------------------------------
  0 C s       :     2.459211  s :     2.459211
      pz      :     0.757103  p :     2.290484
      px      :     0.777715
      py      :     0.755667
      dz2     :     0.050941  d :     0.492683
      dxz     :     0.141018
      dyz     :     0.129578
      dx2y2   :     0.124959
      dxy     :     0.046188
      f0      :     0.024402  f :     0.178779
      f+1     :     0.013564
      f-1     :     0.032814
      f+2     :     0.033083
      f-2     :     0.032886
      f+3     :     0.023636
      f-3     :     0.018394
  1 C s       :     2.496128  s :     2.496128
      pz      :     0.658825  p :     2.152257
      px      :     0.788506
      py      :     0.704926
      dz2     :     0.177477  d :     1.237974
      dxz     :     0.266394
      dyz     :     0.211593
      dx2y2   :     0.323108
      dxy     :     0.259401
      f0      :     0.064277  f :     0.652901
      f+1     :     0.101164
      f-1     :     0.066376
      f+2     :     0.035170
      f-2     :     0.149987
      f+3     :     0.119160
      f-3     :     0.116767
  2 C s       :     2.459211  s :     2.459211
      pz      :     0.761777  p :     2.290484
      px      :     0.754417
      py      :     0.774289
      dz2     :     0.045555  d :     0.492682
      dxz     :     0.137933
      dyz     :     0.126713
      dx2y2   :     0.129085
      dxy     :     0.053396
      f0      :     0.020347  f :     0.178778
      f+1     :     0.036251
      f-1     :     0.009612
      f+2     :     0.032935
      f-2     :     0.026820
      f+3     :     0.022829
      f-3     :     0.029985
  3 O s       :     3.205387  s :     3.205387
      pz      :     1.342601  p :     4.066214
      px      :     1.391386
      py      :     1.332227
      dz2     :     0.022470  d :     0.209377
      dxz     :     0.037055
      dyz     :     0.032373
      dx2y2   :     0.057569
      dxy     :     0.059910
      f0      :     0.008965  f :     0.072122
      f+1     :     0.007506
      f-1     :     0.004261
      f+2     :     0.001521
      f-2     :     0.014368
      f+3     :     0.017987
      f-3     :     0.017513
  4 H s       :     0.641286  s :     0.641286
      pz      :     0.097120  p :     0.309793
      px      :     0.131526
      py      :     0.081147
      dz2     :     0.038665  d :     0.231936
      dxz     :     0.055742
      dyz     :     0.038933
      dx2y2   :     0.049999
      dxy     :     0.048597
  5 H s       :     0.633532  s :     0.633532
      pz      :     0.098347  p :     0.312751
      px      :     0.086505
      py      :     0.127899
      dz2     :     0.028135  d :     0.228580
      dxz     :     0.033887
      dyz     :     0.065709
      dx2y2   :     0.047061
      dxy     :     0.053789
  6 H s       :     0.633479  s :     0.633479
      pz      :     0.101934  p :     0.312727
      px      :     0.125912
      py      :     0.084880
      dz2     :     0.045589  d :     0.228580
      dxz     :     0.048081
      dyz     :     0.048608
      dx2y2   :     0.049532
      dxy     :     0.036770
  7 H s       :     0.633509  s :     0.633509
      pz      :     0.095395  p :     0.312745
      px      :     0.082983
      py      :     0.134367
      dz2     :     0.033211  d :     0.228585
      dxz     :     0.037635
      dyz     :     0.059245
      dx2y2   :     0.049250
      dxy     :     0.049245
  8 H s       :     0.633501  s :     0.633501
      pz      :     0.106881  p :     0.312733
      px      :     0.119242
      py      :     0.086611
      dz2     :     0.039565  d :     0.228576
      dxz     :     0.054300
      dyz     :     0.044994
      dx2y2   :     0.048020
      dxy     :     0.041697
  9 H s       :     0.641288  s :     0.641288
      pz      :     0.107139  p :     0.309791
      px      :     0.081626
      py      :     0.121027
      dz2     :     0.049501  d :     0.231935
      dxz     :     0.052226
      dyz     :     0.045309
      dx2y2   :     0.049121
      dxy     :     0.035777


                      *****************************
                      * MAYER POPULATION ANALYSIS *
                      *****************************

  NA   - Mulliken gross atomic population
  ZA   - Total nuclear charge
  QA   - Mulliken gross atomic charge
  VA   - Mayer's total valence
  BVA  - Mayer's bonded valence
  FA   - Mayer's free valence

  ATOM       NA         ZA         QA         VA         BVA        FA
  0 C      6.7872     6.0000    -0.7872     3.7827     3.7827     0.0000
  1 C      5.5104     6.0000     0.4896     3.1809     3.1809    -0.0000
  2 C      6.7872     6.0000    -0.7872     3.7827     3.7827    -0.0000
  3 O      8.7333     8.0000    -0.7333     1.4302     1.4302     0.0000
  4 H      0.7120     1.0000     0.2880     1.0583     1.0583     0.0000
  5 H      0.6894     1.0000     0.3106     0.9920     0.9920     0.0000
  6 H      0.6896     1.0000     0.3104     0.9921     0.9921    -0.0000
  7 H      0.6895     1.0000     0.3105     0.9919     0.9919    -0.0000
  8 H      0.6895     1.0000     0.3105     0.9922     0.9922    -0.0000
  9 H      0.7120     1.0000     0.2880     1.0583     1.0583    -0.0000

  Mayer bond orders larger than 0.100000
B(  0-C ,  1-C ) :   0.8983 B(  0-C ,  4-H ) :   0.9463 B(  0-C ,  5-H ) :   0.9146 
B(  0-C ,  6-H ) :   0.9145 B(  1-C ,  2-C ) :   0.8983 B(  1-C ,  3-O ) :   1.3549 
B(  2-C ,  7-H ) :   0.9145 B(  2-C ,  8-H ) :   0.9145 B(  2-C ,  9-H ) :   0.9463 


-------
TIMINGS
-------

Total SCF time: 0 days 0 hours 0 min 50 sec 

Total time                  ....      50.363 sec
Sum of individual times     ....      50.092 sec  ( 99.5%)

Fock matrix formation       ....      49.242 sec  ( 97.8%)
Diagonalization             ....       0.248 sec  (  0.5%)
Density matrix formation    ....       0.019 sec  (  0.0%)
Population analysis         ....       0.026 sec  (  0.1%)
Initial guess               ....       0.183 sec  (  0.4%)
Orbital Transformation      ....       0.000 sec  (  0.0%)
Orbital Orthonormalization  ....       0.000 sec  (  0.0%)
DIIS solution               ....       0.113 sec  (  0.2%)
SOSCF solution              ....       0.235 sec  (  0.5%)


           ************************************************************
           *        Program running with 8 parallel MPI-processes     *
           *              working on a common directory               *
           ************************************************************


------------------------------------------------------------------------------- 
                              ORCA-MATRIX DRIVEN CI                            
------------------------------------------------------------------------------- 


Wavefunction type
-----------------
Correlation treatment                      ...      CCSD     
Single excitations                         ... ON
Orbital optimization                       ... OFF
Calculation of Z vector                    ... OFF
Calculation of Brueckner orbitals          ... OFF
Perturbative triple excitations            ... OFF
Calculation of F12 correction              ... OFF
Frozen core treatment                      ... chemical core (8 el)
Reference Wavefunction                     ... RHF
  Internal Orbitals:     4 ...   15 ( 12 MO's/ 24 electrons)
  Virtual  Orbitals:    16 ...  321 (306 MO's              )
Number of AO's                             ...    322
Number of electrons                        ...     32
Number of correlated electrons             ...     24

Algorithmic settings
--------------------
Integral transformation                    ... All integrals via the RI transformation
K(C) Formation                             ... RI-DLPNO
   PNO-Integral Storage                    ... ON DISK
   PNO occupation number cut-off           ... 3.330e-07
   Singles PNO occupation number cut-off   ... 9.990e-09
   PNO Mulliken prescreening cut-off       ... 1.000e-03
   Domain cut-off (Mulliken population)    ... 1.000e-03
   PNO Normalization                       ...    1
Maximum number of iterations               ...        50
Convergence tolerance (max. residuum)      ... 1.000e-05
Level shift for amplitude update           ... 2.000e-01
Maximum number of DIIS vectors             ...         7
DIIS turned on at iteration                ...         0
Damping before turning on DIIS             ...     0.500
Damping after turning on DIIS              ...     0.000
Pair specific amplitude update             ... OFF
Natural orbital iterations                 ... OFF
Perturbative natural orbital generation    ... OFF
Printlevel                                 ... 2

Singles Fock matrix elements calculated using PNOs.

Memory handling:
----------------
Maximum memory for working arrays          ...   1000 MB
Data storage in matrix containers          ... UNCOMPRESSED
Data type for integral storage             ... DOUBLE
In-Core Storage of quantities:
   Amplitudes+Sigma Vector      ... NO
   J+K operators                ... NO
   DIIS vectors                 ... NO
   3-external integrals         ... NO
   4-external integrals         ... NO

Localization treatment:
-----------------------
Localization option                        ...    6
Localization threshhold                    ... -1.0e+00
Using relative localization threshhold     ... 1.0e-08
Neglect threshold for strong pairs         ... 1.000e-04 Eh
Prescreening threshold for very weak pairs ... 1.000e-06 Eh

Initializing the integral package          ... done
Localizing the valence orbitals
------------------------------------------------------------------------------
                           ORCA ORBITAL LOCALIZATION
------------------------------------------------------------------------------

Input orbitals are from                  ... acetone_DLPNO-CCSD_aug-cc-pVTZ_SPE.gbw
Output orbitals are to                   ... acetone_DLPNO-CCSD_aug-cc-pVTZ_SPE.loc
Max. number of iterations                ... 128
Localizations seeded randomly            ... off
Convergence tolerance                    ... 1.000e-06
Using relative localization threshhold   ... 1.000e-08
Treshold for strong local MOs            ... 9.500e-01
Treshold for bond MOs                    ... 8.500e-01
Operator                                 ... 0
Orbital range for localization           ... 4 to 15
Localization criterion                   ... FOSTER-BOYS (AUGMENTED HESSIAN)
Doing the dipole integrals     ... o.k.
Initial value of the localization sum :    80.870355
ITERATION   0 : L=  105.4593083155 DL=  2.46e+01 (AVERGE_DL)=    0.6103768490 
ITERATION   1 : L=  109.2174131371 DL=  3.76e+00 (AVERGE_DL)=    0.2386230964 
ITERATION   2 : L=  109.2473103424 DL=  2.99e-02 (AVERGE_DL)=    0.0212835138 
ITERATION   3 : L=  109.2482978614 DL=  9.88e-04 (AVERGE_DL)=    0.0038681272 
ITERATION   4 : L=  109.2484051918 DL=  1.07e-04 (AVERGE_DL)=    0.0012752327 
ITERATION   5 : L=  109.2484146445 DL=  9.45e-06 (AVERGE_DL)=    0.0003784478 
ITERATION   6 : L=  109.2484154360 DL=  7.91e-07 (AVERGE_DL)=    0.0001095087 
LOCALIZATION SUM CONVERGED

------------------------------------------------------
AUGMENTED HESSIAN OPTIMIZATION OF FOSTER-BOYS ORBITALS
------------------------------------------------------

Spin operator:           0
Orbital window:          4 to 15
Number of iterations:    128
Gradient tolerance:      1.000e-06
Number of pairs:         66
Davidson threshold:      2000
Diagonalization method:  LAPACK
Iter:    0   L: 109.2484154360   Grad. norm: 7.401843e-04
   *** Likely close to a maximum now. ***
       Augmented Hessian eigenvalues:  1.25e-07 -1.80e+00 -2.37e+00 -3.12e+00 ... 
Iter:    1   L: 109.2484154983   Grad. norm: 6.391565e-08
LOCALIZATION HAS CONVERGED.

Eigenvalues of the Hessian:
  0 -1.798e+00
  1 -2.373e+00
  2 -3.125e+00
  3 -5.652e+00
  4 -6.696e+00
  5 -7.306e+00
  6 -1.602e+01
  7 -1.603e+01
  8 -1.676e+01
  9 -1.676e+01
    ...


------------------------------------------------------------------------------- 
                    LOCALIZED MOLECULAR ORBITAL COMPOSITIONS                   
------------------------------------------------------------------------------- 

The Mulliken populations for each LMO on each atom are computed
The LMO`s will be ordered according to atom index and type
  (A) Strongly localized MO`s have populations of >=0.950 on one atom
  (B) Two center bond orbitals have populations of >=0.850 on two atoms
  (C) Other MO`s are considered to be `delocalized`

FOUND  -   2 strongly local MO`s
       -  10 two center bond MO`s
       -   0 significantly delocalized MO`s

Rather strongly localized orbitals:
MO   5:   3O  -   1.025224
MO   4:   3O  -   1.025225
Bond-like localized orbitals:
MO  15:   9H  -   0.300426  and   2C  -   0.690826
MO  14:   8H  -   0.308743  and   2C  -   0.664166
MO  13:   7H  -   0.308848  and   2C  -   0.664092
MO  12:   6H  -   0.308841  and   0C  -   0.664049
MO  11:   5H  -   0.308750  and   0C  -   0.664208
MO  10:   4H  -   0.300428  and   0C  -   0.690822
MO   9:   3O  -   0.678088  and   1C  -   0.331211
MO   8:   3O  -   0.678121  and   1C  -   0.331243
MO   7:   2C  -   0.363459  and   1C  -   0.611681
MO   6:   1C  -   0.611677  and   0C  -   0.363464
Localized MO's were stored in: acetone_DLPNO-CCSD_aug-cc-pVTZ_SPE.loc

Localizing the core orbitals
------------------------------------------------------------------------------
                           ORCA ORBITAL LOCALIZATION
------------------------------------------------------------------------------

Input orbitals are from                  ... acetone_DLPNO-CCSD_aug-cc-pVTZ_SPE.loc
Output orbitals are to                   ... acetone_DLPNO-CCSD_aug-cc-pVTZ_SPE.loc
Max. number of iterations                ... 128
Localizations seeded randomly            ... off
Convergence tolerance                    ... 1.000e-06
Using relative localization threshhold   ... 1.000e-08
Treshold for strong local MOs            ... 9.500e-01
Treshold for bond MOs                    ... 8.500e-01
Operator                                 ... 0
Orbital range for localization           ... 0 to 3
Localization criterion                   ... FOSTER-BOYS (AUGMENTED HESSIAN)
Doing the dipole integrals     ... o.k.
Initial value of the localization sum :    24.786199
ITERATION   0 : L=   24.7862110067 DL=  1.24e-05 (AVERGE_DL)=    0.0014361997 
ITERATION   1 : L=   24.7862110067 DL=  0.00e+00 (AVERGE_DL)=    0.0000000000 
LOCALIZATION SUM CONVERGED

------------------------------------------------------
AUGMENTED HESSIAN OPTIMIZATION OF FOSTER-BOYS ORBITALS
------------------------------------------------------

Spin operator:           0
Orbital window:          0 to 3
Number of iterations:    128
Gradient tolerance:      1.000e-06
Number of pairs:         6
Davidson threshold:      2000
Diagonalization method:  LAPACK
Iter:    0   L: 24.7862110067   Grad. norm: 6.774648e-06
   *** Likely close to a maximum now. ***
       Augmented Hessian eigenvalues:  1.40e-12 -2.12e+01 -3.25e+01 -3.25e+01 ... 
Iter:    1   L: 24.7862110067   Grad. norm: 8.226069e-19
LOCALIZATION HAS CONVERGED.

Eigenvalues of the Hessian:
  0 -2.125e+01
  1 -3.251e+01
  2 -3.251e+01
  3 -8.150e+01
  4 -8.150e+01
  5 -9.381e+01


------------------------------------------------------------------------------- 
                    LOCALIZED MOLECULAR ORBITAL COMPOSITIONS                   
------------------------------------------------------------------------------- 

The Mulliken populations for each LMO on each atom are computed
The LMO`s will be ordered according to atom index and type
  (A) Strongly localized MO`s have populations of >=0.950 on one atom
  (B) Two center bond orbitals have populations of >=0.850 on two atoms
  (C) Other MO`s are considered to be `delocalized`

FOUND  -   4 strongly local MO`s
       -   0 two center bond MO`s
       -   0 significantly delocalized MO`s

Rather strongly localized orbitals:
MO   3:   3O  -   0.999765
MO   2:   2C  -   1.000258
MO   1:   1C  -   1.002236
MO   0:   0C  -   1.000259
Localized MO's were stored in: acetone_DLPNO-CCSD_aug-cc-pVTZ_SPE.loc

Warning: reference  - re-canonicalizations have been set to INT 1 VIRT 1
Warning: internal orbitals are localized - no re-canonicalization of internal orbitals
Warning: UsePNO is turned on - no re-canonicalization of internal and virtual orbitals

--------------------------
CLOSED-SHELL FOCK OPERATOR
--------------------------

<ss|ss>:       485605 b        16433 skpd (  3.4%)    0.030 s ( 0.000 ms/b)
<ss|sp>:      1462725 b        53413 skpd (  3.7%)    0.088 s ( 0.000 ms/b)
<ss|sd>:      1032280 b        40210 skpd (  3.9%)    0.086 s ( 0.000 ms/b)
<ss|sf>:       346720 b        10169 skpd (  2.9%)    0.042 s ( 0.000 ms/b)
<ss|pp>:       577210 b        18438 skpd (  3.2%)    0.039 s ( 0.000 ms/b)
<ss|pd>:       792925 b        31063 skpd (  3.9%)    0.079 s ( 0.000 ms/b)
<ss|pf>:       267920 b         9523 skpd (  3.6%)    0.041 s ( 0.000 ms/b)
<ss|dd>:       294515 b        15360 skpd (  5.2%)    0.041 s ( 0.000 ms/b)
<ss|df>:       189120 b         5514 skpd (  2.9%)    0.040 s ( 0.000 ms/b)
<ss|ff>:        35460 b          624 skpd (  1.8%)    0.013 s ( 0.000 ms/b)
<sp|sp>:      1103355 b        43121 skpd (  3.9%)    0.079 s ( 0.000 ms/b)
<sp|sd>:      1556280 b        65678 skpd (  4.2%)    0.173 s ( 0.000 ms/b)
<sp|sf>:       522720 b        17054 skpd (  3.3%)    0.086 s ( 0.000 ms/b)
<sp|pp>:       870210 b        29407 skpd (  3.4%)    0.100 s ( 0.000 ms/b)
<sp|pd>:      1195425 b        50009 skpd (  4.2%)    0.225 s ( 0.000 ms/b)
<sp|pf>:       403920 b        15542 skpd (  3.8%)    0.108 s ( 0.000 ms/b)
<sp|dd>:       444015 b        25190 skpd (  5.7%)    0.124 s ( 0.000 ms/b)
<sp|df>:       285120 b         9017 skpd (  3.2%)    0.120 s ( 0.000 ms/b)
<sp|ff>:        53460 b         1055 skpd (  2.0%)    0.037 s ( 0.001 ms/b)
<sd|sd>:       549676 b        25494 skpd (  4.6%)    0.108 s ( 0.000 ms/b)
<sd|sf>:       368896 b        13636 skpd (  3.7%)    0.112 s ( 0.000 ms/b)
<sd|pp>:       614128 b        23183 skpd (  3.8%)    0.129 s ( 0.000 ms/b)
<sd|pd>:       843640 b        39541 skpd (  4.7%)    0.283 s ( 0.000 ms/b)
<sd|pf>:       285056 b        12612 skpd (  4.4%)    0.143 s ( 0.001 ms/b)
<sd|dd>:       313352 b        19457 skpd (  6.2%)    0.164 s ( 0.001 ms/b)
<sd|df>:       201216 b         7909 skpd (  3.9%)    0.170 s ( 0.001 ms/b)
<sd|ff>:        37728 b          873 skpd (  2.3%)    0.057 s ( 0.002 ms/b)
<sf|sf>:        62128 b         1800 skpd (  2.9%)    0.043 s ( 0.001 ms/b)
<sf|pp>:       206272 b         5976 skpd (  2.9%)    0.079 s ( 0.000 ms/b)
<sf|pd>:       283360 b        10674 skpd (  3.8%)    0.173 s ( 0.001 ms/b)
<sf|pf>:        95744 b         3401 skpd (  3.6%)    0.096 s ( 0.001 ms/b)
<sf|dd>:       105248 b         5535 skpd (  5.3%)    0.103 s ( 0.001 ms/b)
<sf|df>:        67584 b         2025 skpd (  3.0%)    0.119 s ( 0.002 ms/b)
<sf|ff>:        12672 b          193 skpd (  1.5%)    0.040 s ( 0.003 ms/b)
<pp|pp>:       171991 b         4792 skpd (  2.8%)    0.044 s ( 0.000 ms/b)
<pp|pd>:       471730 b        17232 skpd (  3.7%)    0.205 s ( 0.000 ms/b)
<pp|pf>:       159392 b         5394 skpd (  3.4%)    0.096 s ( 0.001 ms/b)
<pp|dd>:       175214 b         9155 skpd (  5.2%)    0.118 s ( 0.001 ms/b)
<pp|df>:       112512 b         3250 skpd (  2.9%)    0.117 s ( 0.001 ms/b)
<pp|ff>:        21096 b          353 skpd (  1.7%)    0.038 s ( 0.002 ms/b)
<pd|pd>:       324415 b        15237 skpd (  4.7%)    0.244 s ( 0.001 ms/b)
<pd|pf>:       218960 b         9734 skpd (  4.4%)    0.237 s ( 0.001 ms/b)
<pd|dd>:       240695 b        15341 skpd (  6.4%)    0.298 s ( 0.001 ms/b)
<pd|df>:       154560 b         6503 skpd (  4.2%)    0.299 s ( 0.002 ms/b)
<pd|ff>:        28980 b          730 skpd (  2.5%)    0.096 s ( 0.003 ms/b)
<pf|pf>:        37128 b         1625 skpd (  4.4%)    0.067 s ( 0.002 ms/b)
<pf|dd>:        81328 b         4923 skpd (  6.1%)    0.162 s ( 0.002 ms/b)
<pf|df>:        52224 b         2073 skpd (  4.0%)    0.174 s ( 0.003 ms/b)
<pf|ff>:         9792 b          216 skpd (  2.2%)    0.058 s ( 0.006 ms/b)
<dd|dd>:        44850 b         3559 skpd (  7.9%)    0.101 s ( 0.002 ms/b)
<dd|df>:        57408 b         3388 skpd (  5.9%)    0.207 s ( 0.004 ms/b)
<dd|ff>:        10764 b          409 skpd (  3.8%)    0.068 s ( 0.007 ms/b)
<df|df>:        18528 b          749 skpd (  4.0%)    0.116 s ( 0.007 ms/b)
<df|ff>:         6912 b          105 skpd (  1.5%)    0.077 s ( 0.011 ms/b)
<ff|ff>:          666 b            0 skpd (  0.0%)    0.015 s ( 0.022 ms/b)
Time needed for Fock operator              ...            6.228 sec
Reference energy                           ...   -192.035802280

--------------
DLPNO SETTINGS (2015 fully linear scaling implementation)
--------------

TCutMKN:           1.000e-03
TCutPAO:           1.000e-03
TCutPNO:           3.330e-07
TCutPNOSingles:    9.990e-09
TCutEN:            9.700e-01
TCutPAOExt:        1.000e-01
TCutPairs:         1.000e-04
TCutPre:           1.000e-06
TCutOSV:           1.000e-06
TCutDOij:          1.000e-05
TCutDO:            1.000e-02
TCutC:             1.000e-04
TCutCPAO:          1.000e-03
TCutCMO:           1.000e-03
TScaleDOMP2PreScr: 2.000e+00
TScaleMKNMP2PreScr:1.000e+01
TScalePNOMP2PreScr:1.000e+00
PAO overlap thresh 1.000e-08
Using PNOs for Singles Fock computation
Use new domains
Use fully linear algorithm

--------------------------
Calculating differential overlap integrals ... ok
--------------------------
ELECTRON PAIR PRESCREENING
--------------------------

Dipole-based pair screening          .... used

   TCutDOij = 1.000000e-05
   TCutPre  = 1.000000e-06
   .... Finished loop over pairs
Total time spent in the prescreening                  ...     0.000 sec
sum of pair energies estimated for screened out pairs ...       0.000000000000 Eh
Thresholds for map construction and integral transformation for crude MP2:
   TCutMKN                    ...     1.0e-02
   TCutDO                     ...     2.0e-02
   TCutPairs                  ...     1.0e-04
   TCutPNO_CrudeMP2           ...     3.3e-07
   TCutPNOSingles_CrudeMP2    ...     1.0e-08
--------------------------------
LOCAL RI TRANSFORMATION (IAVPAO)
--------------------------------

Orbital window:       4 to 15
Number of PAOs:     322
Basis functions:    322 (110 shells)
Aux. functions:     700 (196 shells)

Processing maps (0.0 sec)
Average map sizes:
   Aux shells -> MOs              12.0
   Aux shells -> PAOs            322.0
   MOs        -> AO shells       110.0
   PAOs       -> AO shells       110.0

Calculating integrals (0.3 sec, 20.644 MB)
Sorting integrals (0.0 sec, 20.636 MB)
Total time for the integral transformation: 0.3 sec
--------------------------------
INITIAL GUESS AND PNO GENERATION
--------------------------------

PNO truncation parameters                   .... 
    PAOOverlapThresh   =        1.000e-08

    TCutPairs          =        1.000e-04
    TCutPNO            =        3.330e-07
    TCutPNOSingles     =        9.990e-09
    TCutMP2Pairs       =        1.000e-05
    TCutMKN            =        1.000e-02
    TCutDO             =        2.000e-02

Pair selection                          .... not used
Type of local MP2 treatment                 .... semi-local MP2
Strategy for PNO selection                  .... occupation number selection
Pair density normalization                  .... MP2 norm
Spin component scaling                      .... not used

   .... Finished loop over pairs
Making pair pair interaction lists          ... done

                       ===========================
                         78 OF   78 PAIRS ARE KEPT CCSD PAIRS
                          0 OF   78 PAIRS ARE KEPT MP2 PAIRS
                          0 OF   78 PAIRS ARE SKIPPED
                       ===========================

Total time spent in the initial guess                 ...     1.332 sec
SL-MP2 correlation energy (all non-screened pairs)    ...      -0.727943592677 Eh

Initial PNO correlation energy                        ...      -0.726342827323 Eh
sum of pair energies prescreened and skipped MP2 pairs...       0.000000000000 Eh
sum of pair energies of crude MP2 skipped pairs only  ...       0.000000000000 Eh
sum of MP2 pair energies for pairs that were not kept ...       0.000000000000 Eh
sum of PNO error estimates for the kept pairs         ...      -0.001600765354 Eh
                                                          --------------------
sum of all corrections                                         -0.001600765354
Initial total correlation energy                               -0.727943592677
Thresholds for map construction and integral transformation for fine MP2 and CCSD(T) calculation:
   TCutMKN   ...     1.0e-03
   TCutDO    ...     1.0e-02
   TCutPairs ...     1.0e-04
   TCutCMO   ...     1.0e-03
   TCutCPAO  ...     1.0e-03

--------------------------------
LOCAL RI TRANSFORMATION (IAVPAO)
--------------------------------

Orbital window:       4 to 15
Number of PAOs:     322
Basis functions:    322 (110 shells)
Aux. functions:     700 (196 shells)

Processing maps (0.0 sec)
Average map sizes:
   Aux shells -> MOs              12.0
   Aux shells -> PAOs            322.0
   MOs        -> AO shells       110.0
   PAOs       -> AO shells       110.0

Calculating integrals (0.3 sec, 20.644 MB)
Sorting integrals (0.0 sec, 20.636 MB)
Total time for the integral transformation: 0.3 sec
--------------------------------
INITIAL GUESS AND PNO GENERATION
--------------------------------

PNO truncation parameters                   .... 
    PAOOverlapThresh   =        1.000e-08

    TCutPairs          =        1.000e-04
    TCutPNO            =        3.330e-07
    TCutPNOSingles     =        9.990e-09
    TCutMP2Pairs       =        1.000e-05
    TCutMKN            =        1.000e-03
    TCutDO             =        1.000e-02

Pair selection                          .... not used
Type of local MP2 treatment                 .... semi-local MP2
Strategy for PNO selection                  .... occupation number selection
Pair density normalization                  .... MP2 norm
Spin component scaling                      .... not used

   .... Finished loop over pairs

 PNO Occupation Number Statistics: 
  | Av. % of trace(Dij) retained        ...  99.335151082141
  | sigma^2 in % of trace(Dij) retained ...   4.81e-01
  | Av. % of trace(Di) retained         ...  99.998996284878
  | sigma^2 in % of trace(Di) retained  ...   5.34e-08
 Distributions of % trace(Dij) recovered:
  |       >= 99.9  ...    31 ( 39.7 % of all pairs)
  |   [90.0, 99.0) ...    20 ( 25.6 % of all pairs)
  |   [99.0, 99.9) ...    27 ( 34.6 % of all pairs)
 Distributions of % trace(Di) recovered :
  |       >= 99.9  ...    12 (100.0 % of all I-pairs )

Making pair pair interaction lists          ... done

                       ===========================
                         78 OF   78 PAIRS ARE KEPT
                       ===========================

Total time spent in the initial guess                 ...     1.892 sec
SL-MP2 correlation energy (all non-screened pairs)    ...      -0.728042132078 Eh

Initial PNO correlation energy                        ...      -0.726436120996 Eh
sum of pair energies estimated for screened out pairs ...       0.000000000000 Eh
sum of MP2 pair energies for pairs that were not kept ...       0.000000000000 Eh
sum of PNO error estimates for the kept pairs         ...      -0.001606011083 Eh
                                                          --------------------
sum of all corrections                                         -0.001606011083
Initial total correlation energy                               -0.728042132078
Thresholds for map construction and integral transformation for fine MP2 and CCSD(T) calculation:
   TCutMKN   ...     1.0e-03
   TCutDO    ...     1.0e-02
   TCutPairs ...     1.0e-04
   TCutCMO   ...     1.0e-03
   TCutCPAO  ...     1.0e-03

Time for aux screen maps:            0.001
Time for maps after fine MP2:            0.003
-----------------------------
LOCAL RI TRANSFORMATION (IJV)
-----------------------------

Orbital window:       4 to 15
Basis functions:    322 (110 shells)
Aux. functions:     700 (196 shells)

Processing maps (0.0 sec)
Average map sizes:
   Aux shells -> MOs(i)           12.0
   Aux shells -> MOs(j)           12.0
   MOs        -> AO shells       110.0

Calculating integrals (0.2 sec, 0.777 MB)
Sorting integrals (0.0 sec, 0.769 MB)
Total time for the integral transformation: 0.2 sec
--------------------------------
LOCAL RI TRANSFORMATION (VABPAO)
--------------------------------

Number of PAOs:     322
Basis functions:    322 (110 shells)
Aux. functions:     700 (196 shells)

Processing maps (0.0 sec)
Average map sizes:
   Aux shells -> PAOs            322.0
   PAOs       -> AO shells       110.0

Calculating integrals (1.7 sec, 1049.733 MB)
Finished


-------------------------------------
Pair Pair Term precalculation with     
RI-(ij|mn) and (im|jn) transformation  
ON THE FLY                             
-------------------------------------

   IBatch   1 (of   3)              ... done (    9.865 sec)
   IBatch   2 (of   3)              ... done (   11.102 sec)
   IBatch   3 (of   3)              ... done (    4.705 sec)
Total EXT                           ...          25.672 sec

---------------------
RI-PNO TRANSFORMATION
---------------------

Total Number of PNOs                   ...  3018
Average number of PNOs per pair        ...    38
Maximal number of PNOs per pair        ...    60
   #pairs with  1 -  5 PNOs   :    0
   #pairs with  6 - 10 PNOs   :    0
   #pairs with 11 - 15 PNOs   :    0
   #pairs with 16 - 20 PNOs   :    6
   #pairs with 21 - 25 PNOs   :   11
   #pairs with 26 - 30 PNOs   :    8
   #pairs with 31 - 35 PNOs   :   12
   #pairs with 36 - 40 PNOs   :    6
   #pairs with 41 - 45 PNOs   :    2
   #pairs with 46 - 50 PNOs   :   13
   #pairs with 51 - 55 PNOs   :    9
   #pairs with 56 - 60 PNOs   :   11

Generation of (ij|ab)[P] integrals            ... on
Generation of (ia|bc)[P],(ja|bc)[P] integrals ... on
Storage of 3 and 4 external integrals         ... on
Generation of ALL (ka|bc)[P] integrals        ... on
Keep RI integrals in memory                   ... off

Ibatch:  1 (of  1)
Starting 2-4 index PNO integral generation ... done

Timings:
Total PNO integral transformation time     ...         11.645 sec
Size of the 3-external file                ...        48 MB
Size of the 4-external file                ...       305 MB
Size of the IKJL file                      ...         0 MB
Size of the all 3-external file            ...       288 MB
Size of the 1-external file                ...         0 MB

Making pair/pair overlap matrices          ... done (    0.670 sec)
Size of the pair overlap file              ... 63 MB
Redoing the guess amplitudes               ... done (    0.001 sec)

-------------------------
FINAL STARTUP INFORMATION
-------------------------

E(0)                                       ...   -192.035802280
E(SL-MP2)                                  ...     -0.728042132
E(SL-MP2) including corrections            ...     -0.728042132
Initial E(tot)                             ...   -192.763844412
<T|T>                                      ...      0.196917395
Number of pairs included                   ... 78
Total number of pairs                      ... 78

------------------------------------------------
                  RHF COUPLED CLUSTER ITERATIONS
------------------------------------------------

Number of PNO amplitudes to be optimized   ...       131076
Number of non-PNO amplitudes               ...      7303608
Untruncated number of regular amplitudes   ...      7303608

Iter       E(tot)           E(Corr)          Delta-E          Residual     Time
  0   -192.763872307     -0.726464017      0.001578115      0.019671868    2.60
                           *** Turning on DIIS ***
  1   -192.792745806     -0.755337515     -0.028873499      0.014988355    2.61
  2   -192.812559346     -0.775151056     -0.019813540      0.007417992    2.61
  3   -192.816692344     -0.779284054     -0.004132998      0.004406687    2.61
  4   -192.817945453     -0.780537162     -0.001253109      0.002038091    2.62
  5   -192.818318621     -0.780910330     -0.000373168      0.000758392    2.65
  6   -192.818405171     -0.780996880     -0.000086550      0.000271110    2.62
  7   -192.818407769     -0.780999479     -0.000002599      0.000098090    2.62
  8   -192.818406114     -0.780997823      0.000001656      0.000032923    2.64
  9   -192.818403521     -0.780995230      0.000002593      0.000009039    2.68
               --- The Coupled-Cluster iterations have converged ---

----------------------
COUPLED CLUSTER ENERGY
----------------------

E(0)                                       ...   -192.035802280
E(CORR)(strong-pairs)                      ...     -0.780995230
E(CORR)(weak-pairs)                        ...     -0.001606011
E(CORR)(corrected)                         ...     -0.782601241
E(TOT)                                     ...   -192.818403521
Singles Norm <S|S>**1/2                    ...      0.062933653  
T1 diagnostic                              ...      0.012846278  

------------------
LARGEST AMPLITUDES
------------------
   8-> 16   8-> 16       0.060937
   9-> 16   9-> 16       0.060926
   9-> 16   8-> 16       0.048837
  12-> 16  12-> 16       0.041520
  14-> 16  14-> 16       0.041505
  13-> 16  13-> 16       0.041505
  11-> 16  11-> 16       0.041493
  10-> 16  10-> 16       0.040472
  15-> 16  15-> 16       0.040472
   7-> 19   7-> 19       0.034556
   6-> 19   6-> 19       0.034555
   9-> 16  -1-> -1       0.027540
   8-> 16  -1-> -1       0.027536
   8-> 25   8-> 16       0.026376
   8-> 16   8-> 25       0.026376
   9-> 16   9-> 25       0.026369


        !!!!!!!!!!!!!!!!!!!!!!!!!!!!!!!!!!!!!!!!!!!!!!!!!!!!!!!!!!!!!!!!!!!!!!!!!! 
        !  Warning: Linearized densities requested! These are not the proper     !
        !  density matrices for non-variational theories, e.g., CCSD, QCISD.     !
        !  It is better to use the Density = Unrelaxed option in the input.      !
        !!!!!!!!!!!!!!!!!!!!!!!!!!!!!!!!!!!!!!!!!!!!!!!!!!!!!!!!!!!!!!!!!!!!!!!!!! 

NORM  =      1.254586017 sqrt=     1.120083040
W(HF) =      0.797075678
------------------------------------------------------------------------------
                           ORCA POPULATION ANALYSIS
------------------------------------------------------------------------------
Input electron density              ... acetone_DLPNO-CCSD_aug-cc-pVTZ_SPE.mdcip
BaseName (.gbw .S,...)              ... acetone_DLPNO-CCSD_aug-cc-pVTZ_SPE

                    ********************************
                    * MULLIKEN POPULATION ANALYSIS *
                    ********************************

-----------------------
MULLIKEN ATOMIC CHARGES
-----------------------
   0 C :   -0.825424
   1 C :    0.382472
   2 C :   -0.825952
   3 O :   -0.642317
   4 H :    0.301781
   5 H :    0.327091
   6 H :    0.326596
   7 H :    0.326919
   8 H :    0.326874
   9 H :    0.301961
Sum of atomic charges:   -0.0000000

--------------------------------
MULLIKEN REDUCED ORBITAL CHARGES
--------------------------------
  0 C s       :     3.183039  s :     3.183039
      pz      :     1.108454  p :     3.474872
      px      :     1.276237
      py      :     1.090180
      dz2     :     0.014619  d :     0.157392
      dxz     :     0.051811
      dyz     :     0.025864
      dx2y2   :     0.048814
      dxy     :     0.016282
      f0      :     0.000372  f :     0.010122
      f+1     :     0.002469
      f-1     :     0.000299
      f+2     :     0.003877
      f-2     :     0.000065
      f+3     :     0.000490
      f-3     :     0.002549
  1 C s       :     3.326786  s :     3.326786
      pz      :     0.767461  p :     2.150605
      px      :     0.691253
      py      :     0.691891
      dz2     :     0.015776  d :     0.139504
      dxz     :     0.038867
      dyz     :     0.035431
      dx2y2   :     0.055991
      dxy     :    -0.006562
      f0      :     0.002231  f :     0.000634
      f+1     :    -0.000512
      f-1     :    -0.000263
      f+2     :     0.000015
      f-2     :    -0.002631
      f+3     :     0.001712
      f-3     :     0.000081
  2 C s       :     3.183538  s :     3.183538
      pz      :     1.151773  p :     3.474868
      px      :     1.059831
      py      :     1.263264
      dz2     :     0.014410  d :     0.157423
      dxz     :     0.034610
      dyz     :     0.046552
      dx2y2   :     0.044569
      dxy     :     0.017283
      f0      :     0.000316  f :     0.010122
      f+1     :     0.001053
      f-1     :     0.001706
      f+2     :     0.003544
      f-2     :     0.001599
      f+3     :     0.001158
      f-3     :     0.000746
  3 O s       :     4.027953  s :     4.027953
      pz      :     1.642901  p :     4.525575
      px      :     1.443686
      py      :     1.438988
      dz2     :     0.009521  d :     0.078798
      dxz     :     0.017822
      dyz     :     0.013376
      dx2y2   :     0.024221
      dxy     :     0.013859
      f0      :     0.001541  f :     0.009992
      f+1     :     0.000967
      f-1     :     0.000869
      f+2     :     0.000942
      f-2     :     0.001861
      f+3     :     0.002368
      f-3     :     0.001443
  4 H s       :     0.637459  s :     0.637459
      pz      :     0.021631  p :     0.054832
      px      :     0.016500
      py      :     0.016702
      dz2     :     0.001474  d :     0.005927
      dxz     :     0.000213
      dyz     :     0.001257
      dx2y2   :     0.000697
      dxy     :     0.002286
  5 H s       :     0.621223  s :     0.621223
      pz      :     0.010120  p :     0.045169
      px      :     0.017954
      py      :     0.017095
      dz2     :     0.000424  d :     0.006517
      dxz     :     0.001274
      dyz     :     0.001973
      dx2y2   :     0.000365
      dxy     :     0.002481
  6 H s       :     0.621682  s :     0.621682
      pz      :     0.017826  p :     0.045214
      px      :     0.014938
      py      :     0.012450
      dz2     :     0.001793  d :     0.006508
      dxz     :    -0.001032
      dyz     :     0.002974
      dx2y2   :     0.001173
      dxy     :     0.001600
  7 H s       :     0.621395  s :     0.621395
      pz      :     0.018114  p :     0.045176
      px      :     0.013194
      py      :     0.013868
      dz2     :     0.001213  d :     0.006510
      dxz     :     0.002269
      dyz     :     0.000006
      dx2y2   :     0.001298
      dxy     :     0.001724
  8 H s       :     0.621373  s :     0.621373
      pz      :     0.010476  p :     0.045242
      px      :     0.016499
      py      :     0.018268
      dz2     :     0.001639  d :     0.006511
      dxz     :     0.000385
      dyz     :     0.001446
      dx2y2   :     0.001442
      dxy     :     0.001599
  9 H s       :     0.637342  s :     0.637342
      pz      :     0.021857  p :     0.054762
      px      :     0.015264
      py      :     0.017642
      dz2     :     0.002173  d :     0.005935
      dxz     :     0.001725
      dyz     :    -0.000941
      dx2y2   :     0.001525
      dxy     :     0.001453


                     *******************************
                     * LOEWDIN POPULATION ANALYSIS *
                     *******************************

----------------------
LOEWDIN ATOMIC CHARGES
----------------------
   0 C :    0.550821
   1 C :   -0.549065
   2 C :    0.550814
   3 O :    0.494310
   4 H :   -0.180772
   5 H :   -0.171373
   6 H :   -0.171288
   7 H :   -0.171347
   8 H :   -0.171321
   9 H :   -0.180779

-------------------------------
LOEWDIN REDUCED ORBITAL CHARGES
-------------------------------
  0 C s       :     2.460590  s :     2.460590
      pz      :     0.757123  p :     2.291083
      px      :     0.777742
      py      :     0.756219
      dz2     :     0.058119  d :     0.507860
      dxz     :     0.142019
      dyz     :     0.129136
      dx2y2   :     0.126188
      dxy     :     0.052398
      f0      :     0.027013  f :     0.189646
      f+1     :     0.014471
      f-1     :     0.034814
      f+2     :     0.035024
      f-2     :     0.033841
      f+3     :     0.024957
      f-3     :     0.019527
  1 C s       :     2.496332  s :     2.496332
      pz      :     0.676484  p :     2.184346
      px      :     0.789494
      py      :     0.718369
      dz2     :     0.181038  d :     1.229722
      dxz     :     0.261662
      dyz     :     0.210912
      dx2y2   :     0.313947
      dxy     :     0.262163
      f0      :     0.062675  f :     0.638664
      f+1     :     0.100162
      f-1     :     0.065886
      f+2     :     0.036705
      f-2     :     0.144827
      f+3     :     0.113572
      f-3     :     0.114838
  2 C s       :     2.460589  s :     2.460589
      pz      :     0.761646  p :     2.291085
      px      :     0.755239
      py      :     0.774201
      dz2     :     0.052300  d :     0.507869
      dxz     :     0.137554
      dyz     :     0.127604
      dx2y2   :     0.130170
      dxy     :     0.060241
      f0      :     0.021787  f :     0.189642
      f+1     :     0.038892
      f-1     :     0.010725
      f+2     :     0.034753
      f-2     :     0.028086
      f+3     :     0.023570
      f-3     :     0.031828
  3 O s       :     3.203510  s :     3.203510
      pz      :     1.305050  p :     3.975124
      px      :     1.367931
      py      :     1.302144
      dz2     :     0.028778  d :     0.245842
      dxz     :     0.044990
      dyz     :     0.039175
      dx2y2   :     0.066635
      dxy     :     0.066263
      f0      :     0.010107  f :     0.081214
      f+1     :     0.008336
      f-1     :     0.005282
      f+2     :     0.002478
      f-2     :     0.015827
      f+3     :     0.020394
      f-3     :     0.018789
  4 H s       :     0.629726  s :     0.629726
      pz      :     0.100373  p :     0.318962
      px      :     0.134130
      py      :     0.084459
      dz2     :     0.039029  d :     0.232083
      dxz     :     0.055845
      dyz     :     0.038413
      dx2y2   :     0.049935
      dxy     :     0.048861
  5 H s       :     0.621060  s :     0.621060
      pz      :     0.101320  p :     0.322422
      px      :     0.089165
      py      :     0.131937
      dz2     :     0.028728  d :     0.227891
      dxz     :     0.033130
      dyz     :     0.065451
      dx2y2   :     0.046820
      dxy     :     0.053762
  6 H s       :     0.621004  s :     0.621004
      pz      :     0.105435  p :     0.322387
      px      :     0.128889
      py      :     0.088063
      dz2     :     0.045699  d :     0.227897
      dxz     :     0.048479
      dyz     :     0.047520
      dx2y2   :     0.048985
      dxy     :     0.037214
  7 H s       :     0.621040  s :     0.621040
      pz      :     0.098582  p :     0.322405
      px      :     0.086531
      py      :     0.137292
      dz2     :     0.033675  d :     0.227902
      dxz     :     0.036689
      dyz     :     0.059031
      dx2y2   :     0.049181
      dxy     :     0.049326
  8 H s       :     0.621032  s :     0.621032
      pz      :     0.109737  p :     0.322395
      px      :     0.123471
      py      :     0.089186
      dz2     :     0.039916  d :     0.227894
      dxz     :     0.054587
      dyz     :     0.043918
      dx2y2   :     0.047511
      dxy     :     0.041962
  9 H s       :     0.629729  s :     0.629729
      pz      :     0.110207  p :     0.318967
      px      :     0.085176
      py      :     0.123585
      dz2     :     0.049735  d :     0.232083
      dxz     :     0.051313
      dyz     :     0.045770
      dx2y2   :     0.048986
      dxy     :     0.036281


                      *****************************
                      * MAYER POPULATION ANALYSIS *
                      *****************************

  NA   - Mulliken gross atomic population
  ZA   - Total nuclear charge
  QA   - Mulliken gross atomic charge
  VA   - Mayer's total valence
  BVA  - Mayer's bonded valence
  FA   - Mayer's free valence

  ATOM       NA         ZA         QA         VA         BVA        FA
  0 C      6.8254     6.0000    -0.8254     3.8642     3.4923     0.3719
  1 C      5.6175     6.0000     0.3825     3.2782     2.9478     0.3304
  2 C      6.8260     6.0000    -0.8260     3.8640     3.4921     0.3719
  3 O      8.6423     8.0000    -0.6423     1.7792     1.3002     0.4789
  4 H      0.6982     1.0000     0.3018     1.0434     0.9796     0.0638
  5 H      0.6729     1.0000     0.3271     0.9734     0.9079     0.0655
  6 H      0.6734     1.0000     0.3266     0.9740     0.9084     0.0655
  7 H      0.6731     1.0000     0.3269     0.9736     0.9081     0.0655
  8 H      0.6731     1.0000     0.3269     0.9739     0.9083     0.0655
  9 H      0.6980     1.0000     0.3020     1.0431     0.9792     0.0638

  Mayer bond orders larger than 0.100000
B(  0-C ,  1-C ) :   0.8513 B(  0-C ,  4-H ) :   0.8717 B(  0-C ,  5-H ) :   0.8321 
B(  0-C ,  6-H ) :   0.8321 B(  1-C ,  2-C ) :   0.8511 B(  1-C ,  3-O ) :   1.2177 
B(  2-C ,  7-H ) :   0.8322 B(  2-C ,  8-H ) :   0.8322 B(  2-C ,  9-H ) :   0.8715 



Maximum memory used throughout the entire calculation: 933.8 MB


------------------------------------------------------------------------------- 
                                     TIMINGS                                   
------------------------------------------------------------------------------- 


Total execution time                   ...       77.294 sec

Localization of occupied MO's          ...        0.320 sec (  0.4%)
Fock Matrix Formation                  ...        6.228 sec (  8.1%)
Global overlap, Fock, MKN matrices     ...        0.104 sec (  0.1%)
Differential overlap integrals         ...        0.051 sec (  0.1%)
Organizing maps                        ...        0.008 sec (  0.0%)
RI 3-index integral generations        ...        2.504 sec (  3.2%)
RI-PNO integral transformation         ...       38.030 sec ( 49.2%)
Initial Guess                          ...        3.279 sec (  4.2%)
DIIS Solver                            ...        0.057 sec (  0.1%)
State Vector Update                    ...        0.003 sec (  0.0%)
Sigma-vector construction              ...       26.212 sec ( 33.9%)
  <D|H|D>(0-ext)                       ...        0.495 sec (  1.9% of sigma)
  <D|H|D>(2-ext Fock)                  ...        0.007 sec (  0.0% of sigma)
  <D|H|D>(2-ext)                       ...        5.696 sec ( 21.7% of sigma)
  <D|H|D>(4-ext)                       ...        3.616 sec ( 13.8% of sigma)
  <D|H|D>(4-ext-corr)                  ...       12.963 sec ( 49.5% of sigma)
  CCSD doubles correction              ...        0.022 sec (  0.1% of sigma)
  <S|H|S>                              ...        0.138 sec (  0.5% of sigma)
  <S|H|D>(1-ext)                       ...        0.091 sec (  0.3% of sigma)
  <D|H|S>(1-ext)                       ...        0.001 sec (  0.0% of sigma)
  <S|H|D>(3-ext)                       ...        0.053 sec (  0.2% of sigma)
  Fock-dressing                        ...        1.450 sec (  5.5% of sigma)
  Singles amplitudes                   ...        0.093 sec (  0.4% of sigma)
  (ik|jl)-dressing                     ...        0.391 sec (  1.5% of sigma)
  (ij|ab),(ia|jb)-dressing             ...        0.701 sec (  2.7% of sigma)
  Pair energies                        ...        0.002 sec (  0.0% of sigma)
One-particle density matrix            ...        0.272 sec (  0.4%)


-------------------------   --------------------
FINAL SINGLE POINT ENERGY      -192.818403520890
-------------------------   --------------------


                            ***************************************
                            *     ORCA property calculations      *
                            ***************************************

                                    ---------------------
                                    Active property flags
                                    ---------------------
   (+) Dipole Moment


------------------------------------------------------------------------------
                       ORCA ELECTRIC PROPERTIES CALCULATION
------------------------------------------------------------------------------

Dipole Moment Calculation                       ... on
Quadrupole Moment Calculation                   ... off
Polarizability Calculation                      ... off
GBWName                                         ... acetone_DLPNO-CCSD_aug-cc-pVTZ_SPE.gbw
Electron density file                           ... acetone_DLPNO-CCSD_aug-cc-pVTZ_SPE.scfp
The origin for moment calculation is the CENTER OF MASS  = ( 0.333816, -0.606175 -0.606117)

-------------
DIPOLE MOMENT
-------------
                                X             Y             Z
Electronic contribution:     -2.85812       2.34566      -0.36502
Nuclear contribution   :      3.91043      -3.20949       0.49928
                        -----------------------------------------
Total Dipole Moment    :      1.05231      -0.86383       0.13425
                        -----------------------------------------
Magnitude (a.u.)       :      1.36806
Magnitude (Debye)      :      3.47733



--------------------
Rotational spectrum 
--------------------
 
Rotational constants in cm-1:     0.337089     0.287076     0.164424 
Rotational constants in MHz : 10105.674786  8606.318847  4929.316729 

 Dipole components along the rotational axes: 
x,y,z [a.u.] :     0.000000     1.368059     0.000061 
x,y,z [Debye]:     0.000001     3.477329     0.000156 

 

                           *** MDCI DENSITY ***

------------------------------------------------------------------------------
                       ORCA ELECTRIC PROPERTIES CALCULATION
------------------------------------------------------------------------------

Dipole Moment Calculation                       ... on
Quadrupole Moment Calculation                   ... off
Polarizability Calculation                      ... off
GBWName                                         ... acetone_DLPNO-CCSD_aug-cc-pVTZ_SPE.gbw
Electron density file                           ... acetone_DLPNO-CCSD_aug-cc-pVTZ_SPE.mdcip
The origin for moment calculation is the CENTER OF MASS  = ( 0.333816, -0.606175 -0.606117)

-------------
DIPOLE MOMENT
-------------
                                X             Y             Z
Electronic contribution:     -3.02734       2.48456      -0.38653
Nuclear contribution   :      3.91043      -3.20949       0.49928
                        -----------------------------------------
Total Dipole Moment    :      0.88309      -0.72493       0.11274
                        -----------------------------------------
Magnitude (a.u.)       :      1.14808
Magnitude (Debye)      :      2.91819



--------------------
Rotational spectrum 
--------------------
 
Rotational constants in cm-1:     0.337089     0.287076     0.164424 
Rotational constants in MHz : 10105.674786  8606.318847  4929.316729 

 Dipole components along the rotational axes: 
x,y,z [a.u.] :    -0.000062     1.148081     0.000099 
x,y,z [Debye]:    -0.000157     2.918189     0.000250 

 

Timings for individual modules:

Sum of individual times         ...      128.675 sec (=   2.145 min)
GTO integral calculation        ...        0.563 sec (=   0.009 min)   0.4 %
SCF iterations                  ...       50.554 sec (=   0.843 min)  39.3 %
MDCI module                     ...       77.558 sec (=   1.293 min)  60.3 %
                             ****ORCA TERMINATED NORMALLY****
TOTAL RUN TIME: 0 days 0 hours 2 minutes 8 seconds 974 msec
