
                                 *****************
                                 * O   R   C   A *
                                 *****************

           --- An Ab Initio, DFT and Semiempirical electronic structure package ---

                  #######################################################
                  #                        -***-                        #
                  #          Department of theory and spectroscopy      #
                  #               Directorship: Frank Neese             #
                  #        Max Planck Institute fuer Kohlenforschung    #
                  #                Kaiser Wilhelm Platz 1               #
                  #                 D-45470 Muelheim/Ruhr               #
                  #                      Germany                        #
                  #                                                     #
                  #                  All rights reserved                #
                  #                        -***-                        #
                  #######################################################


                         Program Version 4.2.1 -  RELEASE  -


 With contributions from (in alphabetic order):
   Daniel Aravena         : Magnetic Suceptibility
   Michael Atanasov       : Ab Initio Ligand Field Theory (pilot matlab implementation)
   Alexander A. Auer      : GIAO ZORA, VPT2
   Ute Becker             : Parallelization
   Giovanni Bistoni       : ED, misc. LED, open-shell LED, HFLD
   Martin Brehm           : Molecular dynamics
   Dmytro Bykov           : SCF Hessian
   Vijay G. Chilkuri      : MRCI spin determinant printing, contributions to CSF-ICE
   Dipayan Datta          : RHF DLPNO-CCSD density
   Achintya Kumar Dutta   : EOM-CC, STEOM-CC
   Dmitry Ganyushin       : Spin-Orbit,Spin-Spin,Magnetic field MRCI
   Miquel Garcia          : C-PCM Hessian, Gaussian charge scheme
   Yang Guo               : DLPNO-NEVPT2, CIM, IAO-localization
   Andreas Hansen         : Spin unrestricted coupled pair/coupled cluster methods
   Benjamin Helmich-Paris : CASSCF linear response (MC-RPA)
   Lee Huntington         : MR-EOM, pCC
   Robert Izsak           : Overlap fitted RIJCOSX, COSX-SCS-MP3, EOM
   Christian Kollmar      : KDIIS, OOCD, Brueckner-CCSD(T), CCSD density
   Simone Kossmann        : Meta GGA functionals, TD-DFT gradient, OOMP2, MP2 Hessian
   Martin Krupicka        : AUTO-CI
   Lucas Lang             : DCDCAS
   Dagmar Lenk            : GEPOL surface, SMD
   Dimitrios Liakos       : Extrapolation schemes; Compound Job, initial MDCI parallelization
   Dimitrios Manganas     : Further ROCIS development; embedding schemes
   Dimitrios Pantazis     : SARC Basis sets
   Taras Petrenko         : DFT Hessian,TD-DFT gradient, ASA, ECA, R-Raman, ABS, FL, XAS/XES, NRVS
   Peter Pinski           : DLPNO-MP2, DLPNO-MP2 Gradient
   Christoph Reimann      : Effective Core Potentials
   Marius Retegan         : Local ZFS, SOC
   Christoph Riplinger    : Optimizer, TS searches, QM/MM, DLPNO-CCSD(T), (RO)-DLPNO pert. Triples
   Tobias Risthaus        : Range-separated hybrids, TD-DFT gradient, RPA, STAB
   Michael Roemelt        : Original ROCIS implementation
   Masaaki Saitow         : Open-shell DLPNO-CCSD energy and density
   Barbara Sandhoefer     : DKH picture change effects
   Avijit Sen             : IP-ROCIS
   Kantharuban Sivalingam : CASSCF convergence, NEVPT2, FIC-MRCI
   Bernardo de Souza      : ESD, SOC TD-DFT
   Georgi Stoychev        : AutoAux, RI-MP2 NMR
   Willem Van den Heuvel  : Paramagnetic NMR
   Boris Wezisla          : Elementary symmetry handling
   Frank Wennmohs         : Technical directorship


 We gratefully acknowledge several colleagues who have allowed us to
 interface, adapt or use parts of their codes:
   Stefan Grimme, W. Hujo, H. Kruse,             : VdW corrections, initial TS optimization,
                  C. Bannwarth                     DFT functionals, gCP, sTDA/sTD-DF
   Ed Valeev, F. Pavosevic, A. Kumar             : LibInt (2-el integral package), F12 methods
   Garnet Chan, S. Sharma, J. Yang, R. Olivares  : DMRG
   Ulf Ekstrom                                   : XCFun DFT Library
   Mihaly Kallay                                 : mrcc  (arbitrary order and MRCC methods)
   Andreas Klamt, Michael Diedenhofen            : otool_cosmo (COSMO solvation model)
   Jiri Pittner, Ondrej Demel                    : Mk-CCSD
   Frank Weinhold                                : gennbo (NPA and NBO analysis)
   Christopher J. Cramer and Donald G. Truhlar   : smd solvation model
   Lars Goerigk                                  : TD-DFT with DH, B97 family of functionals
   V. Asgeirsson, H. Jonsson                     : NEB implementation
   FAccTs GmbH                                   : IRC, NEB, NEB-TS, Multilevel, MM, QM/MM, CI optimization
   S Lehtola, MJT Oliveira, MAL Marques          : LibXC Library


 Your calculation uses the libint2 library for the computation of 2-el integrals
 For citations please refer to: http://libint.valeyev.net

 Your ORCA version has been built with support for libXC version: 4.2.3
 For citations please refer to: https://tddft.org/programs/libxc/

 This ORCA versions uses:
   CBLAS   interface :  Fast vector & matrix operations
   LAPACKE interface :  Fast linear algebra routines
   SCALAPACK package :  Parallel linear algebra routines




***************************************
The coordinates will be read from file: acetone_MP2_aug-cc-pVTZ_OPT.xyz
***************************************


----- Orbital basis set information -----
Your calculation utilizes the basis: aug-cc-pVTZ 
    H, B-Ne : Obtained from the ccRepo (grant-hill.group.shef.ac.uk/ccrepo) Feb. 2017
              R. A. Kendall, T. H. Dunning, Jr., R. J. Harrison, J. Chem. Phys. 96, 6796 (1992)
         He : Obtained from the ccRepo (grant-hill.group.shef.ac.uk/ccrepo) Feb. 2017
              D. E. Woon, T. H. Dunning, Jr., J. Chem. Phys. 100, 2975 (1994)
  Li-Be, Na : Obtained from the ccRepo (grant-hill.group.shef.ac.uk/ccrepo) Feb. 2017
              B. P. Prascher, D. E. Woon, K. A. Peterson, T. H. Dunning, Jr., A. K. Wilson, Theor. Chem. Acc. 128, 69 (2011)
         Mg : Obtained from the Peterson Research Group Website (tyr0.chem.wsu.edu/~kipeters) Feb. 2017
              B. P. Prascher, D. E. Woon, K. A. Peterson, T. H. Dunning, Jr., A. K. Wilson, Theor. Chem. Acc. 128, 69 (2011)
      Al-Ar : Obtained from the ccRepo (grant-hill.group.shef.ac.uk/ccrepo) Feb. 2017
              D. E. Woon, T. H. Dunning, Jr., J. Chem. Phys. 98, 1358 (1993)
      Sc-Zn : Obtained from the ccRepo (grant-hill.group.shef.ac.uk/ccrepo) Feb. 2017
              N. B. Balabanov, K. A. Peterson, J. Chem. Phys. 123, 064107 (2005)
              N. B. Balabanov, K. A. Peterson, J. Chem. Phys. 125, 074110 (2006)
      Ga-Kr : Obtained from the ccRepo (grant-hill.group.shef.ac.uk/ccrepo) Feb. 2017
              A. K. Wilson, D. E. Woon, K. A. Peterson, T. H. Dunning, Jr., J. Chem. Phys. 110, 7667 (1999)
     Ag, Au : Obtained from the Peterson Research Group Website (tyr0.chem.wsu.edu/~kipeters) Feb. 2017
              K. A. Peterson, C. Puzzarini, Theor. Chem. Acc. 114, 283 (2005)

================================================================================
                                        WARNINGS
                       Please study these warnings very carefully!
================================================================================


WARNING: MDCI localization with Augmented Hessian Foster-Boys
  ===> : Switching off randomization!

WARNING: Post HF methods need fully converged wavefunctions
  ===> : Setting SCFConvForced true
         You can overwrite this default with %scf ConvForced false 


INFO   : the flag for use of LIBINT has been found!

================================================================================
                                       INPUT FILE
================================================================================
NAME = acetone_CCSDT_aug-cc-pVTZ_SPE.inp
|  1> # acetone CCSD(T)/aug-cc-pVTZ SPE
|  2> 
|  3> ! CCSD(T) aug-cc-pVTZ TightSCF PAL8
|  4> %maxcore 2000
|  5> 
|  6> * xyzfile 0 1 acetone_MP2_aug-cc-pVTZ_OPT.xyz
|  7> 
|  8> 
|  9>                          ****END OF INPUT****
================================================================================

                       ****************************
                       * Single Point Calculation *
                       ****************************

---------------------------------
CARTESIAN COORDINATES (ANGSTROEM)
---------------------------------
  C      0.102899   -1.357246    0.703875
  C      0.101304   -0.259029   -0.330422
  C      1.324607   -0.166171   -1.208353
  O     -0.836850    0.511284   -0.449993
  H     -0.820512   -1.333011    1.274331
  H      0.213734   -2.326245    0.215665
  H      0.956381   -1.235461    1.372003
  H      1.465350   -1.103400   -1.748173
  H      2.211979   -0.014612   -0.592532
  H      1.217048    0.653982   -1.911542

----------------------------
CARTESIAN COORDINATES (A.U.)
----------------------------
  NO LB      ZA    FRAG     MASS         X           Y           Z
   0 C     6.0000    0    12.011    0.194451   -2.564823    1.330132
   1 C     6.0000    0    12.011    0.191437   -0.489494   -0.624407
   2 C     6.0000    0    12.011    2.503144   -0.314017   -2.283457
   3 O     8.0000    0    15.999   -1.581417    0.966186   -0.850363
   4 H     1.0000    0     1.008   -1.550543   -2.519026    2.408137
   5 H     1.0000    0     1.008    0.403898   -4.395965    0.407549
   6 H     1.0000    0     1.008    1.807297   -2.334683    2.592709
   7 H     1.0000    0     1.008    2.769111   -2.085125   -3.303569
   8 H     1.0000    0     1.008    4.180035   -0.027614   -1.119723
   9 H     1.0000    0     1.008    2.299888    1.235846   -3.612290

--------------------------------
INTERNAL COORDINATES (ANGSTROEM)
--------------------------------
 C      0   0   0     0.000000000000     0.00000000     0.00000000
 C      1   0   0     1.508593107096     0.00000000     0.00000000
 C      2   1   0     1.508593894754   116.29169977     0.00000000
 O      2   1   3     1.219759114353   121.85409138   180.01741645
 H      1   2   3     1.085677291914   110.06545242   180.12297423
 H      1   2   3     1.090684120096   109.87530200   301.36099615
 H      1   2   3     1.090713798748   109.84750301    58.92319374
 H      3   2   1     1.090694287834   109.86301915    58.79629472
 H      3   2   1     1.090704108618   109.85850032   301.23575618
 H      3   2   1     1.085676028468   110.06540872   180.01862861

---------------------------
INTERNAL COORDINATES (A.U.)
---------------------------
 C      0   0   0     0.000000000000     0.00000000     0.00000000
 C      1   0   0     2.850827819933     0.00000000     0.00000000
 C      2   1   0     2.850829308390   116.29169977     0.00000000
 O      2   1   3     2.305010675482   121.85409138   180.01741645
 H      1   2   3     2.051632751534   110.06545242   180.12297423
 H      1   2   3     2.061094285598   109.87530200   301.36099615
 H      1   2   3     2.061150370123   109.84750301    58.92319374
 H      3   2   1     2.061113499838   109.86301915    58.79629472
 H      3   2   1     2.061132058430   109.85850032   301.23575618
 H      3   2   1     2.051630363968   110.06540872   180.01862861

---------------------
BASIS SET INFORMATION
---------------------
There are 3 groups of distinct atoms

 Group   1 Type C   : 19s6p3d2f contracted to 5s4p3d2f pattern {88111/3111/111/11}
 Group   2 Type O   : 19s6p3d2f contracted to 5s4p3d2f pattern {88111/3111/111/11}
 Group   3 Type H   : 6s3p2d contracted to 4s3p2d pattern {3111/111/11}

Atom   0C    basis set group =>   1
Atom   1C    basis set group =>   1
Atom   2C    basis set group =>   1
Atom   3O    basis set group =>   2
Atom   4H    basis set group =>   3
Atom   5H    basis set group =>   3
Atom   6H    basis set group =>   3
Atom   7H    basis set group =>   3
Atom   8H    basis set group =>   3
Atom   9H    basis set group =>   3

Checking for AutoStart:
The File: acetone_CCSDT_aug-cc-pVTZ_SPE.gbw exists
Trying to determine its content:
     ... Fine, the file contains calculation information
     ... Fine, the calculation information was read
     ... Fine, the file contains a basis set
     ... Fine, the basis set was read
     ... Fine, the file contains a geometry
     ... Fine, the geometry was read
     ... Fine, the file contains a set of orbitals
     ... Fine, the orbitals can be read
     => possible old guess file was deleted
     => GBW file was renamed to GES file
     => GES file is set as startup file
     => Guess is set to MORead
     ... now leaving AutoStart



           ************************************************************
           *        Program running with 8 parallel MPI-processes     *
           *              working on a common directory               *
           ************************************************************
------------------------------------------------------------------------------
                           ORCA GTO INTEGRAL CALCULATION
------------------------------------------------------------------------------

                         BASIS SET STATISTICS AND STARTUP INFO

 # of primitive gaussian shells          ...  186
 # of primitive gaussian functions       ...  414
 # of contracted shells                  ...  110
 # of contracted basis functions         ...  322
 Highest angular momentum                ...    3
 Maximum contraction depth               ...    8
 Integral package used                   ... LIBINT
 Integral threshhold            Thresh   ...  2.500e-11
 Primitive cut-off              TCut     ...  2.500e-12


------------------------------ INTEGRAL EVALUATION ----------------------------


 * One electron integrals 
 Pre-screening matrix                    ... done
 Shell pair data                         ... done (   0.001 sec)



           ************************************************************
           *        Program running with 8 parallel MPI-processes     *
           *              working on a common directory               *
           ************************************************************
-------------------------------------------------------------------------------
                                 ORCA SCF
-------------------------------------------------------------------------------

------------
SCF SETTINGS
------------
Hamiltonian:
 Ab initio Hamiltonian  Method          .... Hartree-Fock(GTOs)


General Settings:
 Integral files         IntName         .... acetone_CCSDT_aug-cc-pVTZ_SPE
 Hartree-Fock type      HFTyp           .... RHF
 Total Charge           Charge          ....    0
 Multiplicity           Mult            ....    1
 Number of Electrons    NEL             ....   32
 Basis Dimension        Dim             ....  322
 Nuclear Repulsion      ENuc            ....    119.5363959901 Eh

Convergence Acceleration:
 DIIS                   CNVDIIS         .... on
   Start iteration      DIISMaxIt       ....    12
   Startup error        DIISStart       ....  0.200000
   # of expansion vecs  DIISMaxEq       ....     5
   Bias factor          DIISBfac        ....   1.050
   Max. coefficient     DIISMaxC        ....  10.000
 Newton-Raphson         CNVNR           .... off
 SOSCF                  CNVSOSCF        .... on
   Start iteration      SOSCFMaxIt      ....   150
   Startup grad/error   SOSCFStart      ....  0.003300
 Level Shifting         CNVShift        .... on
   Level shift para.    LevelShift      ....    0.2500
   Turn off err/grad.   ShiftErr        ....    0.0010
 Zerner damping         CNVZerner       .... off
 Static damping         CNVDamp         .... on
   Fraction old density DampFac         ....    0.7000
   Max. Damping (<1)    DampMax         ....    0.9800
   Min. Damping (>=0)   DampMin         ....    0.0000
   Turn off err/grad.   DampErr         ....    0.1000
 Fernandez-Rico         CNVRico         .... off

SCF Procedure:
 Maximum # iterations   MaxIter         ....   125
 SCF integral mode      SCFMode         .... Direct
   Integral package                     .... LIBINT
 Reset frequency        DirectResetFreq ....    20
 Integral Threshold     Thresh          ....  2.500e-11 Eh
 Primitive CutOff       TCut            ....  2.500e-12 Eh

Convergence Tolerance:
 Convergence Check Mode ConvCheckMode   .... Total+1el-Energy
 Convergence forced     ConvForced      .... 1
 Energy Change          TolE            ....  1.000e-08 Eh
 1-El. energy change                    ....  1.000e-05 Eh
 Orbital Gradient       TolG            ....  1.000e-05
 Orbital Rotation angle TolX            ....  1.000e-05
 DIIS Error             TolErr          ....  5.000e-07


Diagonalization of the overlap matrix:
Smallest eigenvalue                        ... 1.913e-05
Time for diagonalization                   ...    0.025 sec
Threshold for overlap eigenvalues          ... 1.000e-08
Number of eigenvalues below threshold      ... 0
Time for construction of square roots      ...    0.025 sec
Total time needed                          ...    0.051 sec

---------------------
INITIAL GUESS: MOREAD
---------------------
Guess MOs are being read from file: acetone_CCSDT_aug-cc-pVTZ_SPE.ges
Input Geometry matches current geometry (good)
Input basis set matches current basis set (good)
MOs were renormalized
MOs were reorthogonalized (Cholesky)
                      ------------------
                      INITIAL GUESS DONE (   0.1 sec)
                      ------------------
--------------
SCF ITERATIONS
--------------
ITER       Energy         Delta-E        Max-DP      RMS-DP      [F,P]     Damp
               ***  Starting incremental Fock matrix formation  ***
                      *** Initiating the SOSCF procedure ***
                      *** Re-Reading the Fockian *** 
                      *** Removing any level shift *** 
ITER      Energy       Delta-E        Grad      Rot      Max-DP    RMS-DP
  0   -192.03580228 -192.0358022797  0.000000  0.000000  0.000000  0.000000
               *** Restarting incremental Fock matrix formation ***
                 **** Energy Check signals convergence ****
              ***Rediagonalizing the Fockian in SOSCF/NRSCF***

               *****************************************************
               *                     SUCCESS                       *
               *           SCF CONVERGED AFTER   1 CYCLES          *
               *****************************************************


----------------
TOTAL SCF ENERGY
----------------

Total Energy       :         -192.03580228 Eh           -5225.55984 eV

Components:
Nuclear Repulsion  :          119.53639599 Eh            3252.75070 eV
Electronic Energy  :         -311.57219827 Eh           -8478.31054 eV
One Electron Energy:         -497.22539413 Eh          -13530.19084 eV
Two Electron Energy:          185.65319586 Eh            5051.88029 eV

Virial components:
Potential Energy   :         -383.78986858 Eh          -10443.45326 eV
Kinetic Energy     :          191.75406630 Eh            5217.89342 eV
Virial Ratio       :            2.00146926


---------------
SCF CONVERGENCE
---------------

  Last Energy change         ...    6.8212e-13  Tolerance :   1.0000e-08
  Last MAX-Density change    ...    6.9233e-08  Tolerance :   1.0000e-07
  Last RMS-Density change    ...    1.7916e-09  Tolerance :   5.0000e-09
  Last Orbital Gradient      ...    4.7582e-08  Tolerance :   1.0000e-05
  Last Orbital Rotation      ...    4.4706e-08  Tolerance :   1.0000e-05

             **** THE GBW FILE WAS UPDATED (acetone_CCSDT_aug-cc-pVTZ_SPE.gbw) ****
             **** DENSITY FILE WAS UPDATED (acetone_CCSDT_aug-cc-pVTZ_SPE.scfp) ****
             **** ENERGY FILE WAS UPDATED (acetone_CCSDT_aug-cc-pVTZ_SPE.en.tmp) ****
             **** THE GBW FILE WAS UPDATED (acetone_CCSDT_aug-cc-pVTZ_SPE.gbw) ****
             **** DENSITY FILE WAS UPDATED (acetone_CCSDT_aug-cc-pVTZ_SPE.scfp) ****
----------------
ORBITAL ENERGIES
----------------

  NO   OCC          E(Eh)            E(eV) 
   0   2.0000     -20.545211      -559.0636 
   1   2.0000     -11.333237      -308.3931 
   2   2.0000     -11.235387      -305.7304 
   3   2.0000     -11.235366      -305.7299 
   4   2.0000      -1.380864       -37.5752 
   5   2.0000      -1.045774       -28.4570 
   6   2.0000      -0.969532       -26.3823 
   7   2.0000      -0.742361       -20.2007 
   8   2.0000      -0.644524       -17.5384 
   9   2.0000      -0.637395       -17.3444 
  10   2.0000      -0.625371       -17.0172 
  11   2.0000      -0.562385       -15.3033 
  12   2.0000      -0.561632       -15.2828 
  13   2.0000      -0.538906       -14.6644 
  14   2.0000      -0.486436       -13.2366 
  15   2.0000      -0.415121       -11.2960 
  16   0.0000       0.025697         0.6993 
  17   0.0000       0.036625         0.9966 
  18   0.0000       0.039557         1.0764 
  19   0.0000       0.049701         1.3524 
  20   0.0000       0.061276         1.6674 
  21   0.0000       0.062195         1.6924 
  22   0.0000       0.077669         2.1135 
  23   0.0000       0.103653         2.8205 
  24   0.0000       0.111868         3.0441 
  25   0.0000       0.120978         3.2920 
  26   0.0000       0.129113         3.5133 
  27   0.0000       0.130309         3.5459 
  28   0.0000       0.130573         3.5531 
  29   0.0000       0.135889         3.6977 
  30   0.0000       0.145520         3.9598 
  31   0.0000       0.150531         4.0962 
  32   0.0000       0.154166         4.1951 
  33   0.0000       0.179056         4.8724 
  34   0.0000       0.192818         5.2468 
  35   0.0000       0.195345         5.3156 
  36   0.0000       0.219656         5.9771 
  37   0.0000       0.231188         6.2909 
  38   0.0000       0.239595         6.5197 
  39   0.0000       0.249276         6.7832 
  40   0.0000       0.259544         7.0625 
  41   0.0000       0.284120         7.7313 
  42   0.0000       0.284384         7.7385 
  43   0.0000       0.296141         8.0584 
  44   0.0000       0.314228         8.5506 
  45   0.0000       0.327866         8.9217 
  46   0.0000       0.332041         9.0353 
  47   0.0000       0.335807         9.1378 
  48   0.0000       0.352638         9.5958 
  49   0.0000       0.353452         9.6179 
  50   0.0000       0.353769         9.6265 
  51   0.0000       0.357724         9.7342 
  52   0.0000       0.359019         9.7694 
  53   0.0000       0.370066        10.0700 
  54   0.0000       0.372383        10.1330 
  55   0.0000       0.396823        10.7981 
  56   0.0000       0.397316        10.8115 
  57   0.0000       0.405204        11.0262 
  58   0.0000       0.419240        11.4081 
  59   0.0000       0.423186        11.5155 
  60   0.0000       0.425955        11.5908 
  61   0.0000       0.431595        11.7443 
  62   0.0000       0.437713        11.9108 
  63   0.0000       0.442443        12.0395 
  64   0.0000       0.473109        12.8740 
  65   0.0000       0.476169        12.9572 
  66   0.0000       0.476952        12.9785 
  67   0.0000       0.486614        13.2414 
  68   0.0000       0.494706        13.4616 
  69   0.0000       0.504987        13.7414 
  70   0.0000       0.515845        14.0369 
  71   0.0000       0.534526        14.5452 
  72   0.0000       0.541858        14.7447 
  73   0.0000       0.567626        15.4459 
  74   0.0000       0.591969        16.1083 
  75   0.0000       0.594450        16.1758 
  76   0.0000       0.595133        16.1944 
  77   0.0000       0.604624        16.4527 
  78   0.0000       0.621442        16.9103 
  79   0.0000       0.649205        17.6658 
  80   0.0000       0.658333        17.9141 
  81   0.0000       0.718644        19.5553 
  82   0.0000       0.752812        20.4850 
  83   0.0000       0.757837        20.6218 
  84   0.0000       0.765152        20.8208 
  85   0.0000       0.772690        21.0260 
  86   0.0000       0.784490        21.3470 
  87   0.0000       0.788474        21.4555 
  88   0.0000       0.818076        22.2610 
  89   0.0000       0.833162        22.6715 
  90   0.0000       0.834282        22.7020 
  91   0.0000       0.835306        22.7298 
  92   0.0000       0.850749        23.1500 
  93   0.0000       0.882525        24.0147 
  94   0.0000       0.883389        24.0382 
  95   0.0000       0.888077        24.1658 
  96   0.0000       0.897735        24.4286 
  97   0.0000       0.898313        24.4443 
  98   0.0000       0.900707        24.5095 
  99   0.0000       0.913341        24.8533 
 100   0.0000       0.918229        24.9863 
 101   0.0000       0.934466        25.4281 
 102   0.0000       0.943722        25.6800 
 103   0.0000       0.951342        25.8873 
 104   0.0000       0.976779        26.5795 
 105   0.0000       0.997841        27.1526 
 106   0.0000       1.003728        27.3128 
 107   0.0000       1.023620        27.8541 
 108   0.0000       1.027120        27.9494 
 109   0.0000       1.028197        27.9787 
 110   0.0000       1.034400        28.1475 
 111   0.0000       1.060422        28.8555 
 112   0.0000       1.082714        29.4621 
 113   0.0000       1.083728        29.4897 
 114   0.0000       1.093236        29.7485 
 115   0.0000       1.096155        29.8279 
 116   0.0000       1.106676        30.1142 
 117   0.0000       1.128375        30.7046 
 118   0.0000       1.138472        30.9794 
 119   0.0000       1.144018        31.1303 
 120   0.0000       1.174242        31.9527 
 121   0.0000       1.181571        32.1522 
 122   0.0000       1.186135        32.2764 
 123   0.0000       1.204606        32.7790 
 124   0.0000       1.207585        32.8600 
 125   0.0000       1.235058        33.6076 
 126   0.0000       1.239577        33.7306 
 127   0.0000       1.249004        33.9871 
 128   0.0000       1.267267        34.4841 
 129   0.0000       1.268770        34.5250 
 130   0.0000       1.291735        35.1499 
 131   0.0000       1.326361        36.0921 
 132   0.0000       1.336025        36.3551 
 133   0.0000       1.352767        36.8107 
 134   0.0000       1.356755        36.9192 
 135   0.0000       1.401781        38.1444 
 136   0.0000       1.415244        38.5108 
 137   0.0000       1.435350        39.0579 
 138   0.0000       1.476085        40.1663 
 139   0.0000       1.479627        40.2627 
 140   0.0000       1.484795        40.4033 
 141   0.0000       1.521731        41.4084 
 142   0.0000       1.531518        41.6747 
 143   0.0000       1.534667        41.7604 
 144   0.0000       1.547784        42.1173 
 145   0.0000       1.572417        42.7877 
 146   0.0000       1.601253        43.5723 
 147   0.0000       1.604160        43.6514 
 148   0.0000       1.607487        43.7419 
 149   0.0000       1.638934        44.5977 
 150   0.0000       1.668869        45.4122 
 151   0.0000       1.671627        45.4873 
 152   0.0000       1.682880        45.7935 
 153   0.0000       1.691812        46.0366 
 154   0.0000       1.702916        46.3387 
 155   0.0000       1.710072        46.5334 
 156   0.0000       1.767117        48.0857 
 157   0.0000       1.770330        48.1731 
 158   0.0000       1.784597        48.5614 
 159   0.0000       1.787858        48.6501 
 160   0.0000       1.794935        48.8427 
 161   0.0000       1.826459        49.7005 
 162   0.0000       1.837742        50.0075 
 163   0.0000       1.861219        50.6463 
 164   0.0000       1.867685        50.8223 
 165   0.0000       1.894335        51.5475 
 166   0.0000       1.940732        52.8100 
 167   0.0000       1.946573        52.9689 
 168   0.0000       1.946801        52.9751 
 169   0.0000       1.986474        54.0547 
 170   0.0000       1.991440        54.1898 
 171   0.0000       2.009502        54.6813 
 172   0.0000       2.042565        55.5810 
 173   0.0000       2.082288        56.6619 
 174   0.0000       2.115763        57.5728 
 175   0.0000       2.161642        58.8213 
 176   0.0000       2.178304        59.2747 
 177   0.0000       2.193749        59.6949 
 178   0.0000       2.196872        59.7799 
 179   0.0000       2.198784        59.8319 
 180   0.0000       2.224411        60.5293 
 181   0.0000       2.228254        60.6339 
 182   0.0000       2.251321        61.2616 
 183   0.0000       2.310050        62.8597 
 184   0.0000       2.348874        63.9161 
 185   0.0000       2.361241        64.2526 
 186   0.0000       2.387138        64.9573 
 187   0.0000       2.441884        66.4470 
 188   0.0000       2.488644        67.7194 
 189   0.0000       2.514640        68.4268 
 190   0.0000       2.525611        68.7254 
 191   0.0000       2.634523        71.6890 
 192   0.0000       2.657219        72.3066 
 193   0.0000       2.658292        72.3358 
 194   0.0000       2.675627        72.8075 
 195   0.0000       2.691888        73.2500 
 196   0.0000       2.783552        75.7443 
 197   0.0000       2.813999        76.5728 
 198   0.0000       2.874403        78.2165 
 199   0.0000       2.950612        80.2902 
 200   0.0000       2.964011        80.6548 
 201   0.0000       3.009792        81.9006 
 202   0.0000       3.127266        85.0972 
 203   0.0000       3.149596        85.7049 
 204   0.0000       3.181735        86.5794 
 205   0.0000       3.187730        86.7426 
 206   0.0000       3.304159        89.9107 
 207   0.0000       3.345534        91.0366 
 208   0.0000       3.389359        92.2292 
 209   0.0000       3.398571        92.4798 
 210   0.0000       3.420669        93.0811 
 211   0.0000       3.422027        93.1181 
 212   0.0000       3.458941        94.1226 
 213   0.0000       3.476905        94.6114 
 214   0.0000       3.509756        95.5053 
 215   0.0000       3.543216        96.4158 
 216   0.0000       3.587128        97.6107 
 217   0.0000       3.593289        97.7784 
 218   0.0000       3.603692        98.0614 
 219   0.0000       3.616749        98.4167 
 220   0.0000       3.666114        99.7600 
 221   0.0000       3.676053       100.0305 
 222   0.0000       3.688327       100.3645 
 223   0.0000       3.691287       100.4450 
 224   0.0000       3.708680       100.9183 
 225   0.0000       3.783111       102.9437 
 226   0.0000       3.801155       103.4347 
 227   0.0000       3.877113       105.5016 
 228   0.0000       3.877321       105.5073 
 229   0.0000       3.915671       106.5508 
 230   0.0000       3.931667       106.9861 
 231   0.0000       3.943281       107.3021 
 232   0.0000       3.956268       107.6555 
 233   0.0000       3.962653       107.8293 
 234   0.0000       3.969997       108.0291 
 235   0.0000       3.984475       108.4231 
 236   0.0000       4.027784       109.6016 
 237   0.0000       4.058749       110.4442 
 238   0.0000       4.093908       111.4009 
 239   0.0000       4.100781       111.5879 
 240   0.0000       4.113834       111.9431 
 241   0.0000       4.133708       112.4839 
 242   0.0000       4.149622       112.9169 
 243   0.0000       4.168058       113.4186 
 244   0.0000       4.181288       113.7786 
 245   0.0000       4.187141       113.9379 
 246   0.0000       4.223637       114.9310 
 247   0.0000       4.245861       115.5358 
 248   0.0000       4.308429       117.2383 
 249   0.0000       4.369100       118.8893 
 250   0.0000       4.387628       119.3934 
 251   0.0000       4.440410       120.8297 
 252   0.0000       4.449271       121.0708 
 253   0.0000       4.454885       121.2236 
 254   0.0000       4.468119       121.5837 
 255   0.0000       4.522805       123.0718 
 256   0.0000       4.550244       123.8184 
 257   0.0000       4.620929       125.7419 
 258   0.0000       4.636377       126.1622 
 259   0.0000       4.678582       127.3107 
 260   0.0000       4.700903       127.9181 
 261   0.0000       4.738073       128.9295 
 262   0.0000       4.749995       129.2539 
 263   0.0000       4.795126       130.4820 
 264   0.0000       4.838793       131.6703 
 265   0.0000       4.844156       131.8162 
 266   0.0000       4.845838       131.8620 
 267   0.0000       4.849032       131.9489 
 268   0.0000       4.916778       133.7923 
 269   0.0000       4.943236       134.5123 
 270   0.0000       4.989538       135.7722 
 271   0.0000       4.990659       135.8027 
 272   0.0000       5.052002       137.4720 
 273   0.0000       5.121328       139.3584 
 274   0.0000       5.164108       140.5225 
 275   0.0000       5.175671       140.8372 
 276   0.0000       5.221727       142.0904 
 277   0.0000       5.224697       142.1712 
 278   0.0000       5.287156       143.8708 
 279   0.0000       5.321093       144.7943 
 280   0.0000       5.370151       146.1292 
 281   0.0000       5.372911       146.2043 
 282   0.0000       5.403573       147.0387 
 283   0.0000       5.412581       147.2838 
 284   0.0000       5.455044       148.4393 
 285   0.0000       5.548238       150.9752 
 286   0.0000       5.619676       152.9192 
 287   0.0000       5.627785       153.1398 
 288   0.0000       5.667054       154.2084 
 289   0.0000       5.713437       155.4705 
 290   0.0000       5.731290       155.9563 
 291   0.0000       5.762291       156.7999 
 292   0.0000       5.887727       160.2132 
 293   0.0000       5.936150       161.5308 
 294   0.0000       6.001045       163.2967 
 295   0.0000       6.011423       163.5791 
 296   0.0000       6.125447       166.6819 
 297   0.0000       6.139136       167.0544 
 298   0.0000       6.139682       167.0692 
 299   0.0000       6.162125       167.6799 
 300   0.0000       6.264392       170.4628 
 301   0.0000       6.434498       175.0916 
 302   0.0000       6.672121       181.5576 
 303   0.0000       6.682274       181.8339 
 304   0.0000       6.717194       182.7842 
 305   0.0000       6.730397       183.1434 
 306   0.0000       6.732922       183.2121 
 307   0.0000       6.776618       184.4012 
 308   0.0000       7.038771       191.5347 
 309   0.0000       7.065877       192.2723 
 310   0.0000       7.249763       197.2761 
 311   0.0000       7.359561       200.2638 
 312   0.0000       7.456041       202.8892 
 313   0.0000       7.503824       204.1894 
 314   0.0000       7.584830       206.3937 
 315   0.0000       7.685864       209.1430 
 316   0.0000       7.833140       213.1506 
 317   0.0000       7.945392       216.2051 
 318   0.0000      15.180170       413.0734 
 319   0.0000      16.960327       461.5140 
 320   0.0000      17.345489       471.9948 
 321   0.0000      19.506780       530.8065 

                    ********************************
                    * MULLIKEN POPULATION ANALYSIS *
                    ********************************

-----------------------
MULLIKEN ATOMIC CHARGES
-----------------------
   0 C :   -0.787169
   1 C :    0.489594
   2 C :   -0.787172
   3 O :   -0.733265
   4 H :    0.288037
   5 H :    0.310588
   6 H :    0.310379
   7 H :    0.310475
   8 H :    0.310490
   9 H :    0.288042
Sum of atomic charges:   -0.0000000

--------------------------------
MULLIKEN REDUCED ORBITAL CHARGES
--------------------------------
  0 C s       :     3.169040  s :     3.169040
      pz      :     1.101973  p :     3.464843
      px      :     1.279500
      py      :     1.083371
      dz2     :     0.008352  d :     0.147258
      dxz     :     0.051545
      dyz     :     0.028676
      dx2y2   :     0.050278
      dxy     :     0.008406
      f0      :    -0.000245  f :     0.006028
      f+1     :     0.001312
      f-1     :    -0.000559
      f+2     :     0.004531
      f-2     :    -0.000503
      f+3     :    -0.000196
      f-3     :     0.001689
  1 C s       :     3.284746  s :     3.284746
      pz      :     0.742971  p :     2.107786
      px      :     0.695646
      py      :     0.669170
      dz2     :     0.008115  d :     0.102160
      dxz     :     0.030921
      dyz     :     0.027183
      dx2y2   :     0.049899
      dxy     :    -0.013956
      f0      :     0.004210  f :     0.015714
      f+1     :     0.000899
      f-1     :     0.000433
      f+2     :     0.000463
      f-2     :     0.000544
      f+3     :     0.005867
      f-3     :     0.003297
  2 C s       :     3.169044  s :     3.169044
      pz      :     1.147394  p :     3.464842
      px      :     1.052278
      py      :     1.265170
      dz2     :     0.007683  d :     0.147258
      dxz     :     0.037486
      dyz     :     0.046596
      dx2y2   :     0.045895
      dxy     :     0.009598
      f0      :    -0.000198  f :     0.006029
      f+1     :     0.000216
      f-1     :     0.000443
      f+2     :     0.004280
      f-2     :     0.001103
      f+3     :     0.000360
      f-3     :    -0.000177
  3 O s       :     4.003410  s :     4.003410
      pz      :     1.700734  p :     4.673766
      px      :     1.483472
      py      :     1.489560
      dz2     :     0.003750  d :     0.050609
      dxz     :     0.011668
      dyz     :     0.006772
      dx2y2   :     0.018606
      dxy     :     0.009813
      f0      :     0.000924  f :     0.005481
      f+1     :     0.000308
      f-1     :     0.000259
      f+2     :     0.000268
      f-2     :     0.001168
      f+3     :     0.001754
      f-3     :     0.000800
  4 H s       :     0.649661  s :     0.649661
      pz      :     0.023224  p :     0.056608
      px      :     0.018142
      py      :     0.015241
      dz2     :     0.001342  d :     0.005694
      dxz     :     0.000294
      dyz     :     0.001202
      dx2y2   :     0.000493
      dxy     :     0.002363
  5 H s       :     0.635780  s :     0.635780
      pz      :     0.008356  p :     0.047157
      px      :     0.016818
      py      :     0.021983
      dz2     :     0.000641  d :     0.006475
      dxz     :     0.001054
      dyz     :     0.001943
      dx2y2   :     0.000580
      dxy     :     0.002257
  6 H s       :     0.635991  s :     0.635991
      pz      :     0.018688  p :     0.047150
      px      :     0.017550
      py      :     0.010912
      dz2     :     0.001760  d :     0.006479
      dxz     :    -0.000845
      dyz     :     0.002867
      dx2y2   :     0.000983
      dxy     :     0.001715
  7 H s       :     0.635938  s :     0.635938
      pz      :     0.017817  p :     0.047109
      px      :     0.012574
      py      :     0.016718
      dz2     :     0.001093  d :     0.006478
      dxz     :     0.002238
      dyz     :     0.000086
      dx2y2   :     0.001148
      dxy     :     0.001913
  8 H s       :     0.635836  s :     0.635836
      pz      :     0.009348  p :     0.047197
      px      :     0.021092
      py      :     0.016758
      dz2     :     0.001849  d :     0.006476
      dxz     :     0.000292
      dyz     :     0.001296
      dx2y2   :     0.001613
      dxy     :     0.001425
  9 H s       :     0.649656  s :     0.649656
      pz      :     0.024092  p :     0.056608
      px      :     0.013733
      py      :     0.018784
      dz2     :     0.001999  d :     0.005694
      dxz     :     0.001708
      dyz     :    -0.000820
      dx2y2   :     0.001235
      dxy     :     0.001572


                     *******************************
                     * LOEWDIN POPULATION ANALYSIS *
                     *******************************

----------------------
LOEWDIN ATOMIC CHARGES
----------------------
   0 C :    0.578843
   1 C :   -0.539260
   2 C :    0.578845
   3 O :    0.446901
   4 H :   -0.183015
   5 H :   -0.174864
   6 H :   -0.174786
   7 H :   -0.174840
   8 H :   -0.174811
   9 H :   -0.183014

-------------------------------
LOEWDIN REDUCED ORBITAL CHARGES
-------------------------------
  0 C s       :     2.459211  s :     2.459211
      pz      :     0.757103  p :     2.290484
      px      :     0.777714
      py      :     0.755667
      dz2     :     0.050941  d :     0.492683
      dxz     :     0.141018
      dyz     :     0.129578
      dx2y2   :     0.124959
      dxy     :     0.046188
      f0      :     0.024402  f :     0.178779
      f+1     :     0.013564
      f-1     :     0.032814
      f+2     :     0.033083
      f-2     :     0.032886
      f+3     :     0.023636
      f-3     :     0.018394
  1 C s       :     2.496128  s :     2.496128
      pz      :     0.658824  p :     2.152256
      px      :     0.788506
      py      :     0.704926
      dz2     :     0.177477  d :     1.237974
      dxz     :     0.266394
      dyz     :     0.211594
      dx2y2   :     0.323108
      dxy     :     0.259401
      f0      :     0.064277  f :     0.652901
      f+1     :     0.101164
      f-1     :     0.066376
      f+2     :     0.035170
      f-2     :     0.149987
      f+3     :     0.119160
      f-3     :     0.116767
  2 C s       :     2.459211  s :     2.459211
      pz      :     0.761777  p :     2.290483
      px      :     0.754417
      py      :     0.774289
      dz2     :     0.045555  d :     0.492682
      dxz     :     0.137933
      dyz     :     0.126713
      dx2y2   :     0.129085
      dxy     :     0.053396
      f0      :     0.020347  f :     0.178778
      f+1     :     0.036251
      f-1     :     0.009612
      f+2     :     0.032935
      f-2     :     0.026820
      f+3     :     0.022829
      f-3     :     0.029985
  3 O s       :     3.205387  s :     3.205387
      pz      :     1.342601  p :     4.066214
      px      :     1.391386
      py      :     1.332227
      dz2     :     0.022470  d :     0.209377
      dxz     :     0.037055
      dyz     :     0.032373
      dx2y2   :     0.057569
      dxy     :     0.059910
      f0      :     0.008965  f :     0.072122
      f+1     :     0.007506
      f-1     :     0.004261
      f+2     :     0.001521
      f-2     :     0.014368
      f+3     :     0.017987
      f-3     :     0.017513
  4 H s       :     0.641286  s :     0.641286
      pz      :     0.097120  p :     0.309792
      px      :     0.131526
      py      :     0.081147
      dz2     :     0.038665  d :     0.231936
      dxz     :     0.055742
      dyz     :     0.038933
      dx2y2   :     0.049999
      dxy     :     0.048597
  5 H s       :     0.633532  s :     0.633532
      pz      :     0.098347  p :     0.312751
      px      :     0.086505
      py      :     0.127899
      dz2     :     0.028135  d :     0.228580
      dxz     :     0.033887
      dyz     :     0.065708
      dx2y2   :     0.047061
      dxy     :     0.053789
  6 H s       :     0.633479  s :     0.633479
      pz      :     0.101934  p :     0.312727
      px      :     0.125912
      py      :     0.084880
      dz2     :     0.045589  d :     0.228580
      dxz     :     0.048081
      dyz     :     0.048608
      dx2y2   :     0.049532
      dxy     :     0.036770
  7 H s       :     0.633509  s :     0.633509
      pz      :     0.095395  p :     0.312745
      px      :     0.082983
      py      :     0.134367
      dz2     :     0.033211  d :     0.228585
      dxz     :     0.037635
      dyz     :     0.059245
      dx2y2   :     0.049250
      dxy     :     0.049245
  8 H s       :     0.633501  s :     0.633501
      pz      :     0.106881  p :     0.312733
      px      :     0.119242
      py      :     0.086611
      dz2     :     0.039565  d :     0.228576
      dxz     :     0.054300
      dyz     :     0.044994
      dx2y2   :     0.048020
      dxy     :     0.041697
  9 H s       :     0.641288  s :     0.641288
      pz      :     0.107139  p :     0.309791
      px      :     0.081626
      py      :     0.121027
      dz2     :     0.049501  d :     0.231935
      dxz     :     0.052227
      dyz     :     0.045309
      dx2y2   :     0.049121
      dxy     :     0.035777


                      *****************************
                      * MAYER POPULATION ANALYSIS *
                      *****************************

  NA   - Mulliken gross atomic population
  ZA   - Total nuclear charge
  QA   - Mulliken gross atomic charge
  VA   - Mayer's total valence
  BVA  - Mayer's bonded valence
  FA   - Mayer's free valence

  ATOM       NA         ZA         QA         VA         BVA        FA
  0 C      6.7872     6.0000    -0.7872     3.7827     3.7827    -0.0000
  1 C      5.5104     6.0000     0.4896     3.1809     3.1809     0.0000
  2 C      6.7872     6.0000    -0.7872     3.7827     3.7827    -0.0000
  3 O      8.7333     8.0000    -0.7333     1.4302     1.4302    -0.0000
  4 H      0.7120     1.0000     0.2880     1.0583     1.0583     0.0000
  5 H      0.6894     1.0000     0.3106     0.9919     0.9919    -0.0000
  6 H      0.6896     1.0000     0.3104     0.9921     0.9921    -0.0000
  7 H      0.6895     1.0000     0.3105     0.9919     0.9919    -0.0000
  8 H      0.6895     1.0000     0.3105     0.9922     0.9922    -0.0000
  9 H      0.7120     1.0000     0.2880     1.0583     1.0583    -0.0000

  Mayer bond orders larger than 0.100000
B(  0-C ,  1-C ) :   0.8983 B(  0-C ,  4-H ) :   0.9463 B(  0-C ,  5-H ) :   0.9146 
B(  0-C ,  6-H ) :   0.9145 B(  1-C ,  2-C ) :   0.8983 B(  1-C ,  3-O ) :   1.3549 
B(  2-C ,  7-H ) :   0.9145 B(  2-C ,  8-H ) :   0.9145 B(  2-C ,  9-H ) :   0.9463 


-------
TIMINGS
-------

Total SCF time: 0 days 0 hours 0 min 8 sec 

Total time                  ....       8.425 sec
Sum of individual times     ....       8.153 sec  ( 96.8%)

Fock matrix formation       ....       7.906 sec  ( 93.8%)
Diagonalization             ....       0.035 sec  (  0.4%)
Density matrix formation    ....       0.001 sec  (  0.0%)
Population analysis         ....       0.054 sec  (  0.6%)
Initial guess               ....       0.054 sec  (  0.6%)
Orbital Transformation      ....       0.000 sec  (  0.0%)
Orbital Orthonormalization  ....       0.049 sec  (  0.6%)
DIIS solution               ....       0.013 sec  (  0.2%)
SOSCF solution              ....       0.089 sec  (  1.1%)


           ************************************************************
           *        Program running with 8 parallel MPI-processes     *
           *              working on a common directory               *
           ************************************************************


------------------------------------------------------------------------------- 
                              ORCA-MATRIX DRIVEN CI                            
------------------------------------------------------------------------------- 

--------------------------------
AUTOMATIC CHOICE OF INCORE LEVEL
--------------------------------

Memory available                           ...   1000.00 MB
Memory needed for S+T                      ...    167.17 MB
Memory needed for J+K                      ...    334.70 MB
Memory needed for DIIS                     ...   2340.33 MB
Memory needed for 3-ext                    ...   2623.23 MB
Memory needed for 4-ext                    ...  33555.42 MB
Memory needed for triples                  ...   1093.01 MB
 -> Final InCoreLevel    ... 2
 -> check shows that triples correction can be computed


Wavefunction type
-----------------
Correlation treatment                      ...      CCSD     
Single excitations                         ... ON
Orbital optimization                       ... OFF
Calculation of Z vector                    ... OFF
Calculation of Brueckner orbitals          ... OFF
Perturbative triple excitations            ... ON
Calculation of F12 correction              ... OFF
Frozen core treatment                      ... chemical core (8 el)
Reference Wavefunction                     ... RHF
  Internal Orbitals:     4 ...   15 ( 12 MO's/ 24 electrons)
  Virtual  Orbitals:    16 ...  321 (306 MO's              )
Number of AO's                             ...    322
Number of electrons                        ...     32
Number of correlated electrons             ...     24

Algorithmic settings
--------------------
Integral transformation                    ... AO direct full transformation
K(C) Formation                             ... FULL-MO TRAFO
Maximum number of iterations               ...        50
Convergence tolerance (max. residuum)      ... 1.000e-05
Level shift for amplitude update           ... 2.000e-01
Maximum number of DIIS vectors             ...         7
DIIS turned on at iteration                ...         0
Damping before turning on DIIS             ...     0.500
Damping after turning on DIIS              ...     0.000
Pair specific amplitude update             ... OFF
Natural orbital iterations                 ... OFF
Perturbative natural orbital generation    ... OFF
Printlevel                                 ... 2

Memory handling:
----------------
Maximum memory for working arrays          ...   1000 MB
Data storage in matrix containers          ... UNCOMPRESSED
Data type for integral storage             ... DOUBLE
In-Core Storage of quantities:
   Amplitudes+Sigma Vector      ... YES
   J+K operators                ... YES
   DIIS vectors                 ... NO
   3-external integrals         ... NO
   4-external integrals         ... NO


Initializing the integral package          ... done
Warning: reference  - re-canonicalizations have been set to INT 1 VIRT 1

--------------------------
CLOSED-SHELL FOCK OPERATOR
--------------------------

<ss|ss>:       485605 b        16433 skpd (  3.4%)    0.037 s ( 0.000 ms/b)
<ss|sp>:      1462725 b        53413 skpd (  3.7%)    0.153 s ( 0.000 ms/b)
<ss|sd>:      1032280 b        40210 skpd (  3.9%)    0.130 s ( 0.000 ms/b)
<ss|sf>:       346720 b        10169 skpd (  2.9%)    0.067 s ( 0.000 ms/b)
<ss|pp>:       577210 b        18438 skpd (  3.2%)    0.039 s ( 0.000 ms/b)
<ss|pd>:       792925 b        31063 skpd (  3.9%)    0.078 s ( 0.000 ms/b)
<ss|pf>:       267920 b         9523 skpd (  3.6%)    0.040 s ( 0.000 ms/b)
<ss|dd>:       294515 b        15360 skpd (  5.2%)    0.041 s ( 0.000 ms/b)
<ss|df>:       189120 b         5514 skpd (  2.9%)    0.040 s ( 0.000 ms/b)
<ss|ff>:        35460 b          624 skpd (  1.8%)    0.013 s ( 0.000 ms/b)
<sp|sp>:      1103355 b        43120 skpd (  3.9%)    0.080 s ( 0.000 ms/b)
<sp|sd>:      1556280 b        65678 skpd (  4.2%)    0.176 s ( 0.000 ms/b)
<sp|sf>:       522720 b        17054 skpd (  3.3%)    0.087 s ( 0.000 ms/b)
<sp|pp>:       870210 b        29407 skpd (  3.4%)    0.100 s ( 0.000 ms/b)
<sp|pd>:      1195425 b        50009 skpd (  4.2%)    0.224 s ( 0.000 ms/b)
<sp|pf>:       403920 b        15542 skpd (  3.8%)    0.108 s ( 0.000 ms/b)
<sp|dd>:       444015 b        25190 skpd (  5.7%)    0.124 s ( 0.000 ms/b)
<sp|df>:       285120 b         9017 skpd (  3.2%)    0.120 s ( 0.000 ms/b)
<sp|ff>:        53460 b         1055 skpd (  2.0%)    0.038 s ( 0.001 ms/b)
<sd|sd>:       549676 b        25494 skpd (  4.6%)    0.108 s ( 0.000 ms/b)
<sd|sf>:       368896 b        13636 skpd (  3.7%)    0.113 s ( 0.000 ms/b)
<sd|pp>:       614128 b        23183 skpd (  3.8%)    0.129 s ( 0.000 ms/b)
<sd|pd>:       843640 b        39541 skpd (  4.7%)    0.283 s ( 0.000 ms/b)
<sd|pf>:       285056 b        12612 skpd (  4.4%)    0.143 s ( 0.001 ms/b)
<sd|dd>:       313352 b        19457 skpd (  6.2%)    0.165 s ( 0.001 ms/b)
<sd|df>:       201216 b         7909 skpd (  3.9%)    0.169 s ( 0.001 ms/b)
<sd|ff>:        37728 b          873 skpd (  2.3%)    0.057 s ( 0.002 ms/b)
<sf|sf>:        62128 b         1800 skpd (  2.9%)    0.043 s ( 0.001 ms/b)
<sf|pp>:       206272 b         5976 skpd (  2.9%)    0.079 s ( 0.000 ms/b)
<sf|pd>:       283360 b        10674 skpd (  3.8%)    0.173 s ( 0.001 ms/b)
<sf|pf>:        95744 b         3401 skpd (  3.6%)    0.096 s ( 0.001 ms/b)
<sf|dd>:       105248 b         5535 skpd (  5.3%)    0.102 s ( 0.001 ms/b)
<sf|df>:        67584 b         2025 skpd (  3.0%)    0.115 s ( 0.002 ms/b)
<sf|ff>:        12672 b          193 skpd (  1.5%)    0.040 s ( 0.003 ms/b)
<pp|pp>:       171991 b         4792 skpd (  2.8%)    0.044 s ( 0.000 ms/b)
<pp|pd>:       471730 b        17232 skpd (  3.7%)    0.204 s ( 0.000 ms/b)
<pp|pf>:       159392 b         5394 skpd (  3.4%)    0.095 s ( 0.001 ms/b)
<pp|dd>:       175214 b         9155 skpd (  5.2%)    0.118 s ( 0.001 ms/b)
<pp|df>:       112512 b         3250 skpd (  2.9%)    0.117 s ( 0.001 ms/b)
<pp|ff>:        21096 b          353 skpd (  1.7%)    0.038 s ( 0.002 ms/b)
<pd|pd>:       324415 b        15237 skpd (  4.7%)    0.244 s ( 0.001 ms/b)
<pd|pf>:       218960 b         9734 skpd (  4.4%)    0.235 s ( 0.001 ms/b)
<pd|dd>:       240695 b        15341 skpd (  6.4%)    0.297 s ( 0.001 ms/b)
<pd|df>:       154560 b         6503 skpd (  4.2%)    0.298 s ( 0.002 ms/b)
<pd|ff>:        28980 b          730 skpd (  2.5%)    0.096 s ( 0.003 ms/b)
<pf|pf>:        37128 b         1625 skpd (  4.4%)    0.067 s ( 0.002 ms/b)
<pf|dd>:        81328 b         4923 skpd (  6.1%)    0.161 s ( 0.002 ms/b)
<pf|df>:        52224 b         2073 skpd (  4.0%)    0.172 s ( 0.003 ms/b)
<pf|ff>:         9792 b          216 skpd (  2.2%)    0.057 s ( 0.006 ms/b)
<dd|dd>:        44850 b         3559 skpd (  7.9%)    0.101 s ( 0.002 ms/b)
<dd|df>:        57408 b         3388 skpd (  5.9%)    0.207 s ( 0.004 ms/b)
<dd|ff>:        10764 b          409 skpd (  3.8%)    0.069 s ( 0.007 ms/b)
<df|df>:        18528 b          749 skpd (  4.0%)    0.116 s ( 0.007 ms/b)
<df|ff>:         6912 b          105 skpd (  1.5%)    0.077 s ( 0.011 ms/b)
<ff|ff>:          666 b            0 skpd (  0.0%)    0.015 s ( 0.023 ms/b)
Recanonicalizing the internal orbitals
Recanonicalizing the virtual orbitals
Time needed for Fock operator              ...            6.410 sec
Reference energy                           ...   -192.035802280

------------------------------
PARTIAL COULOMB TRANSFORMATION
------------------------------

Transformation type                        ... one-operator
Dimension of the basis                     ...  322
Number of internal MOs                     ...  318 (4-321)
Pair cutoff                                ... 0.000e+00 Eh
Number of AO pairs included in the trafo   ... 52003
Total Number of distinct AO pairs          ... 52003
Memory devoted for trafo                   ... 1000.0 MB 
Max. Number of MO pairs treated together   ... 2520      
Max. Number of MOs treated per batch       ...    7      
Number Format for Storage                  ... Double (8 Byte)
AO-integral source                         ... DIRECT
Integral package used                      ... LIBINT

Starting integral evaluation:
<ss|**>:      5969100 b        0 skpd     1.804 s (  0.000 ms/b)
<sp|**>:      8999100 b        0 skpd     7.240 s (  0.001 ms/b)
<sd|**>:      6350880 b        0 skpd     8.617 s (  0.001 ms/b)
<sf|**>:      2133120 b        0 skpd     4.299 s (  0.002 ms/b)
<pp|**>:      3551160 b        0 skpd     8.120 s (  0.002 ms/b)
<pd|**>:      4878300 b        0 skpd    19.023 s (  0.004 ms/b)
<pf|**>:      1648320 b        0 skpd     9.046 s (  0.005 ms/b)
<dd|**>:      1811940 b        0 skpd    11.954 s (  0.007 ms/b)
<df|**>:      1163520 b        0 skpd    10.838 s (  0.009 ms/b)
<ff|**>:       218160 b        0 skpd     3.022 s (  0.014 ms/b)
Closing buffer AOJ ( 2.45 GB; CompressionRatio= 1.00)
Collecting buffer AOJ 
    ... done with AO integral generation
Number of MO pairs included in the trafo   ... 50721
    ... Now sorting integrals
IBATCH = 1 of  3
IBATCH = 2 of  3
IBATCH = 3 of  3
Closing buffer JAO ( 2.46 GB; CompressionRatio= 1.00)
Collecting buffer JAO 
TOTAL TIME for half transformation         ...   190.836 sec
AO-integral generation                     ...     9.680 sec
Half transformation                        ...    74.306 sec
J-integral sorting                         ...    80.584 sec

-------------------------- SECOND HALF TRANSFORMATION -------------------------
Formation of (pq|rs)                       ... ok (   102.270 sec)
Integral sorting                           ... ok (   223.083 sec)

------------------
CLOSED SHELL GUESS
------------------

Initial guess performed in     0.064 sec
E(0)                                       ...   -192.035802280
E(MP2)                                     ...     -0.754340448
Initial E(tot)                             ...   -192.790142728
<T|T>                                      ...      0.220118014
Number of pairs included                   ... 78
Total number of pairs                      ... 78

------------------------------------------------
                  RHF COUPLED CLUSTER ITERATIONS
------------------------------------------------

Number of amplitudes to be optimized       ... 7307280

Iter       E(tot)           E(Corr)          Delta-E          Residual     Time
  0   -192.790142728     -0.754340448      0.000000000      0.016073550  195.62
                           *** Turning on DIIS ***
  1   -192.795049775     -0.759247495     -0.004907047      0.006670156   34.39
  2   -192.813246760     -0.777444481     -0.018196985      0.002837949   34.25
  3   -192.817163586     -0.781361306     -0.003916826      0.001474952   34.29
  4   -192.818271104     -0.782468824     -0.001107518      0.000721144   34.47
  5   -192.818462181     -0.782659901     -0.000191077      0.000309085   34.50
  6   -192.818509011     -0.782706732     -0.000046830      0.000136923   34.72
  7   -192.818516554     -0.782714274     -0.000007543      0.000051143   34.77
  8   -192.818516356     -0.782714076      0.000000198      0.000018696   34.43
  9   -192.818516365     -0.782714085     -0.000000009      0.000006439   35.19
               --- The Coupled-Cluster iterations have converged ---

----------------------
COUPLED CLUSTER ENERGY
----------------------

E(0)                                       ...   -192.035802280
E(CORR)                                    ...     -0.782714085
E(TOT)                                     ...   -192.818516365
Singles Norm <S|S>**1/2                    ...      0.066848326  
T1 diagnostic                              ...      0.013645357  

------------------
LARGEST AMPLITUDES
------------------
  14-> 32  14-> 32       0.044126
  14-> 32  14-> 27       0.030513
  14-> 27  14-> 32       0.030513
  14-> 32  14-> 39       0.023461
  14-> 39  14-> 32       0.023461
  14-> 32  -1-> -1       0.023035
  10-> 32  -1-> -1       0.022904
  14-> 27  14-> 27       0.021851
  14-> 27  -1-> -1       0.018679
  14-> 75  14-> 32       0.017177
  14-> 32  14-> 75       0.017177
  14-> 39  14-> 27       0.016333
  14-> 27  14-> 39       0.016333
  14-> 32  10-> 32       0.015591
  10-> 27  -1-> -1       0.015580
  14-> 32  14-> 24       0.015543


        !!!!!!!!!!!!!!!!!!!!!!!!!!!!!!!!!!!!!!!!!!!!!!!!!!!!!!!!!!!!!!!!!!!!!!!!!! 
        !  Warning: Densities are linearized densities !                         !
        !!!!!!!!!!!!!!!!!!!!!!!!!!!!!!!!!!!!!!!!!!!!!!!!!!!!!!!!!!!!!!!!!!!!!!!!!! 

Trace of internal density part =     -0.505630035
Trace of external density part =      0.505630035
----------------------
RHF TRIPLES CORRECTION (Algorithm 1)
----------------------

Multiplier for the singles contribution    ...      1.000000000

10% done
20% done
30% done
40% done
50% done
60% done
70% done
80% done
90% done

Triples Correction (T)                     ...     -0.033267126
Scaling of triples based on CCSD energies (Peterson et al. Molecular Physics 113, 1551 (2015))
E(T*) = f*E(T) where f = E(F12-CCSD)/E(CCSD) 
f = CCSD (with F12)/ CCSD (without F12)    ...      1.000000000
Scaled triples correction (T)              ...     -0.033267126

Final correlation energy                   ...     -0.815981211
E(CCSD)                                    ...   -192.818516365
E(CCSD(T))                                 ...   -192.851783491

NORM  =      1.257283716 sqrt=     1.121286634
W(HF) =      0.795365427
------------------------------------------------------------------------------
                           ORCA POPULATION ANALYSIS
------------------------------------------------------------------------------
Input electron density              ... acetone_CCSDT_aug-cc-pVTZ_SPE.mdcip
BaseName (.gbw .S,...)              ... acetone_CCSDT_aug-cc-pVTZ_SPE

                    ********************************
                    * MULLIKEN POPULATION ANALYSIS *
                    ********************************

-----------------------
MULLIKEN ATOMIC CHARGES
-----------------------
   0 C :   -0.842081
   1 C :    0.401934
   2 C :   -0.842085
   3 O :   -0.615203
   4 H :    0.296626
   5 H :    0.326130
   6 H :    0.325961
   7 H :    0.326046
   8 H :    0.326042
   9 H :    0.296630
Sum of atomic charges:   -0.0000000

--------------------------------
MULLIKEN REDUCED ORBITAL CHARGES
--------------------------------
  0 C s       :     3.189929  s :     3.189929
      pz      :     1.110597  p :     3.483422
      px      :     1.278209
      py      :     1.094615
      dz2     :     0.015670  d :     0.160322
      dxz     :     0.051839
      dyz     :     0.027769
      dx2y2   :     0.048855
      dxy     :     0.016189
      f0      :     0.000439  f :     0.008409
      f+1     :     0.002017
      f-1     :    -0.000265
      f+2     :     0.003645
      f-2     :    -0.000117
      f+3     :     0.000512
      f-3     :     0.002179
  1 C s       :     3.255436  s :     3.255436
      pz      :     0.784469  p :     2.205397
      px      :     0.712088
      py      :     0.708839
      dz2     :     0.015784  d :     0.132946
      dxz     :     0.036213
      dyz     :     0.032779
      dx2y2   :     0.053590
      dxy     :    -0.005420
      f0      :     0.002644  f :     0.004287
      f+1     :    -0.000188
      f-1     :    -0.000046
      f+2     :     0.000475
      f-2     :    -0.002049
      f+3     :     0.002405
      f-3     :     0.001045
  2 C s       :     3.189933  s :     3.189933
      pz      :     1.153244  p :     3.483420
      px      :     1.064828
      py      :     1.265348
      dz2     :     0.015138  d :     0.160323
      dxz     :     0.035974
      dyz     :     0.047073
      dx2y2   :     0.044693
      dxy     :     0.017445
      f0      :     0.000543  f :     0.008409
      f+1     :     0.000392
      f-1     :     0.001351
      f+2     :     0.003427
      f-2     :     0.001300
      f+3     :     0.000981
      f-3     :     0.000414
  3 O s       :     4.007033  s :     4.007033
      pz      :     1.633148  p :     4.518720
      px      :     1.446758
      py      :     1.438814
      dz2     :     0.009702  d :     0.079719
      dxz     :     0.017999
      dyz     :     0.013486
      dx2y2   :     0.024437
      dxy     :     0.014095
      f0      :     0.001536  f :     0.009732
      f+1     :     0.000943
      f-1     :     0.000852
      f+2     :     0.000930
      f-2     :     0.001745
      f+3     :     0.002318
      f-3     :     0.001407
  4 H s       :     0.640911  s :     0.640911
      pz      :     0.022825  p :     0.057043
      px      :     0.016879
      py      :     0.017339
      dz2     :     0.001265  d :     0.005419
      dxz     :     0.000288
      dyz     :     0.001076
      dx2y2   :     0.000488
      dxy     :     0.002304
  5 H s       :     0.620670  s :     0.620670
      pz      :     0.010223  p :     0.047284
      px      :     0.018772
      py      :     0.018289
      dz2     :     0.000564  d :     0.005916
      dxz     :     0.001012
      dyz     :     0.001856
      dx2y2   :     0.000358
      dxy     :     0.002126
  6 H s       :     0.620848  s :     0.620848
      pz      :     0.018289  p :     0.047271
      px      :     0.015345
      py      :     0.013637
      dz2     :     0.001653  d :     0.005921
      dxz     :    -0.000945
      dyz     :     0.002734
      dx2y2   :     0.000915
      dxy     :     0.001564
  7 H s       :     0.620797  s :     0.620797
      pz      :     0.018429  p :     0.047238
      px      :     0.014759
      py      :     0.014050
      dz2     :     0.001100  d :     0.005919
      dxz     :     0.002115
      dyz     :    -0.000056
      dx2y2   :     0.001074
      dxy     :     0.001687
  8 H s       :     0.620723  s :     0.620723
      pz      :     0.010343  p :     0.047317
      px      :     0.018013
      py      :     0.018961
      dz2     :     0.001614  d :     0.005918
      dxz     :     0.000336
      dyz     :     0.001230
      dx2y2   :     0.001333
      dxy     :     0.001404
  9 H s       :     0.640906  s :     0.640906
      pz      :     0.022995  p :     0.057044
      px      :     0.015933
      py      :     0.018116
      dz2     :     0.001903  d :     0.005420
      dxz     :     0.001495
      dyz     :    -0.000789
      dx2y2   :     0.001253
      dxy     :     0.001558


                     *******************************
                     * LOEWDIN POPULATION ANALYSIS *
                     *******************************

----------------------
LOEWDIN ATOMIC CHARGES
----------------------
   0 C :    0.550235
   1 C :   -0.550998
   2 C :    0.550237
   3 O :    0.497851
   4 H :   -0.181077
   5 H :   -0.171330
   6 H :   -0.171255
   7 H :   -0.171307
   8 H :   -0.171279
   9 H :   -0.181077

-------------------------------
LOEWDIN REDUCED ORBITAL CHARGES
-------------------------------
  0 C s       :     2.461156  s :     2.461156
      pz      :     0.757184  p :     2.291459
      px      :     0.778060
      py      :     0.756214
      dz2     :     0.058547  d :     0.507978
      dxz     :     0.141703
      dyz     :     0.129169
      dx2y2   :     0.126042
      dxy     :     0.052517
      f0      :     0.027047  f :     0.189173
      f+1     :     0.014400
      f-1     :     0.034700
      f+2     :     0.034872
      f-2     :     0.033740
      f+3     :     0.024954
      f-3     :     0.019459
  1 C s       :     2.496698  s :     2.496698
      pz      :     0.678031  p :     2.187705
      px      :     0.790126
      py      :     0.719548
      dz2     :     0.181416  d :     1.228495
      dxz     :     0.260886
      dyz     :     0.210467
      dx2y2   :     0.313005
      dxy     :     0.262720
      f0      :     0.062471  f :     0.638101
      f+1     :     0.100122
      f-1     :     0.065852
      f+2     :     0.036756
      f-2     :     0.144734
      f+3     :     0.113406
      f-3     :     0.114760
  2 C s       :     2.461156  s :     2.461156
      pz      :     0.761774  p :     2.291458
      px      :     0.755176
      py      :     0.774508
      dz2     :     0.052640  d :     0.507977
      dxz     :     0.137511
      dyz     :     0.127355
      dx2y2   :     0.130034
      dxy     :     0.060437
      f0      :     0.021814  f :     0.189172
      f+1     :     0.038773
      f-1     :     0.010696
      f+2     :     0.034611
      f-2     :     0.028013
      f+3     :     0.023507
      f-3     :     0.031759
  3 O s       :     3.204016  s :     3.204016
      pz      :     1.302850  p :     3.971218
      px      :     1.367368
      py      :     1.301000
      dz2     :     0.028796  d :     0.245842
      dxz     :     0.045014
      dyz     :     0.039170
      dx2y2   :     0.066679
      dxy     :     0.066182
      f0      :     0.010123  f :     0.081074
      f+1     :     0.008313
      f-1     :     0.005272
      f+2     :     0.002460
      f-2     :     0.015756
      f+3     :     0.020386
      f-3     :     0.018764
  4 H s       :     0.629871  s :     0.629871
      pz      :     0.100550  p :     0.319552
      px      :     0.134302
      py      :     0.084701
      dz2     :     0.038984  d :     0.231654
      dxz     :     0.055785
      dyz     :     0.038268
      dx2y2   :     0.049813
      dxy     :     0.048804
  5 H s       :     0.620968  s :     0.620968
      pz      :     0.101525  p :     0.322922
      px      :     0.089385
      py      :     0.132013
      dz2     :     0.028675  d :     0.227439
      dxz     :     0.032970
      dyz     :     0.065359
      dx2y2   :     0.046742
      dxy     :     0.053694
  6 H s       :     0.620919  s :     0.620919
      pz      :     0.105560  p :     0.322897
      px      :     0.128999
      py      :     0.088338
      dz2     :     0.045653  d :     0.227439
      dxz     :     0.048459
      dyz     :     0.047344
      dx2y2   :     0.048863
      dxy     :     0.037120
  7 H s       :     0.620947  s :     0.620947
      pz      :     0.098724  p :     0.322916
      px      :     0.086834
      py      :     0.137358
      dz2     :     0.033673  d :     0.227444
      dxz     :     0.036534
      dyz     :     0.058954
      dx2y2   :     0.049084
      dxy     :     0.049198
  8 H s       :     0.620939  s :     0.620939
      pz      :     0.109905  p :     0.322904
      px      :     0.123611
      py      :     0.089388
      dz2     :     0.039791  d :     0.227435
      dxz     :     0.054576
      dyz     :     0.043743
      dx2y2   :     0.047374
      dxy     :     0.041953
  9 H s       :     0.629873  s :     0.629873
      pz      :     0.110367  p :     0.319551
      px      :     0.085415
      py      :     0.123769
      dz2     :     0.049660  d :     0.231653
      dxz     :     0.051119
      dyz     :     0.045771
      dx2y2   :     0.048834
      dxy     :     0.036270


                      *****************************
                      * MAYER POPULATION ANALYSIS *
                      *****************************

  NA   - Mulliken gross atomic population
  ZA   - Total nuclear charge
  QA   - Mulliken gross atomic charge
  VA   - Mayer's total valence
  BVA  - Mayer's bonded valence
  FA   - Mayer's free valence

  ATOM       NA         ZA         QA         VA         BVA        FA
  0 C      6.8421     6.0000    -0.8421     3.8821     3.5075     0.3746
  1 C      5.5981     6.0000     0.4019     3.3798     3.0445     0.3353
  2 C      6.8421     6.0000    -0.8421     3.8821     3.5075     0.3746
  3 O      8.6152     8.0000    -0.6152     1.8724     1.3912     0.4812
  4 H      0.7034     1.0000     0.2966     1.0509     0.9871     0.0638
  5 H      0.6739     1.0000     0.3261     0.9797     0.9141     0.0656
  6 H      0.6740     1.0000     0.3260     0.9798     0.9142     0.0656
  7 H      0.6740     1.0000     0.3260     0.9797     0.9140     0.0656
  8 H      0.6740     1.0000     0.3260     0.9799     0.9142     0.0656
  9 H      0.7034     1.0000     0.2966     1.0509     0.9871     0.0638

  Mayer bond orders larger than 0.100000
B(  0-C ,  1-C ) :   0.8512 B(  0-C ,  4-H ) :   0.8784 B(  0-C ,  5-H ) :   0.8326 
B(  0-C ,  6-H ) :   0.8325 B(  1-C ,  2-C ) :   0.8512 B(  1-C ,  3-O ) :   1.3052 
B(  2-C ,  7-H ) :   0.8326 B(  2-C ,  8-H ) :   0.8326 B(  2-C ,  9-H ) :   0.8784 




------------------------------------------------------------------------------- 
                                     TIMINGS                                   
------------------------------------------------------------------------------- 


Total execution time                   ...     1498.381 sec

Fock Matrix Formation                  ...        6.410 sec (  0.4%)
Initial Guess                          ...        0.064 sec (  0.0%)
DIIS Solver                            ...        5.614 sec (  0.4%)
State Vector Update                    ...        0.332 sec (  0.0%)
Sigma-vector construction              ...      500.669 sec ( 33.4%)
  <0|H|D>                              ...        0.034 sec (  0.0% of sigma)
  <D|H|D>(0-ext)                       ...        1.280 sec (  0.3% of sigma)
  <D|H|D>(2-ext Fock)                  ...        0.944 sec (  0.2% of sigma)
  <D|H|D>(2-ext)                       ...       34.085 sec (  6.8% of sigma)
  <D|H|D>(4-ext)                       ...      253.037 sec ( 50.5% of sigma)
  <D|H|D>(4-ext-corr)                  ...       82.393 sec ( 16.5% of sigma)
  <S|H|0>                              ...        0.046 sec (  0.0% of sigma)
  <S|H|S>                              ...        0.070 sec (  0.0% of sigma)
  <S|H|D>(1-ext)                       ...        0.350 sec (  0.1% of sigma)
  <D|H|S>(1-ext)                       ...        0.495 sec (  0.1% of sigma)
  <S|H|D>(3-ext)                       ...       13.411 sec (  2.7% of sigma)
  Fock-dressing                        ...       45.072 sec (  9.0% of sigma)
  (ik|jl)-dressing                     ...        1.152 sec (  0.2% of sigma)
  (ij|ab),(ia|jb)-dressing             ...       66.801 sec ( 13.3% of sigma)
  Pair energies                        ...        0.066 sec (  0.0% of sigma)
Total Time for computing (T)           ...      418.535 sec ( 27.9% of ALL)
  I/O of integral and amplitudes       ...        7.237 sec (  1.7% of (T))
  N**6 sorting step                    ...       25.049 sec (  6.0% of (T))
  External N**7 contributions          ...      362.629 sec ( 86.6% of (T))
  Internal N**7 contributions          ...       14.385 sec (  3.4% of (T))
  N**6 triples energy contributions    ...        9.234 sec (  2.2% of (T))
One-particle density matrix            ...        0.140 sec (  0.0%)


-------------------------   --------------------
FINAL SINGLE POINT ENERGY      -192.851783490504
-------------------------   --------------------


                            ***************************************
                            *     ORCA property calculations      *
                            ***************************************

                                    ---------------------
                                    Active property flags
                                    ---------------------
   (+) Dipole Moment


------------------------------------------------------------------------------
                       ORCA ELECTRIC PROPERTIES CALCULATION
------------------------------------------------------------------------------

Dipole Moment Calculation                       ... on
Quadrupole Moment Calculation                   ... off
Polarizability Calculation                      ... off
GBWName                                         ... acetone_CCSDT_aug-cc-pVTZ_SPE.gbw
Electron density file                           ... acetone_CCSDT_aug-cc-pVTZ_SPE.scfp
The origin for moment calculation is the CENTER OF MASS  = ( 0.333816, -0.606175 -0.606117)

-------------
DIPOLE MOMENT
-------------
                                X             Y             Z
Electronic contribution:     -2.85812       2.34566      -0.36502
Nuclear contribution   :      3.91043      -3.20949       0.49928
                        -----------------------------------------
Total Dipole Moment    :      1.05231      -0.86383       0.13425
                        -----------------------------------------
Magnitude (a.u.)       :      1.36806
Magnitude (Debye)      :      3.47732



--------------------
Rotational spectrum 
--------------------
 
Rotational constants in cm-1:     0.337089     0.287076     0.164424 
Rotational constants in MHz : 10105.674786  8606.318847  4929.316729 

 Dipole components along the rotational axes: 
x,y,z [a.u.] :     0.000000     1.368056     0.000061 
x,y,z [Debye]:     0.000001     3.477322     0.000156 

 

                           *** MDCI DENSITY ***

------------------------------------------------------------------------------
                       ORCA ELECTRIC PROPERTIES CALCULATION
------------------------------------------------------------------------------

Dipole Moment Calculation                       ... on
Quadrupole Moment Calculation                   ... off
Polarizability Calculation                      ... off
GBWName                                         ... acetone_CCSDT_aug-cc-pVTZ_SPE.gbw
Electron density file                           ... acetone_CCSDT_aug-cc-pVTZ_SPE.mdcip
The origin for moment calculation is the CENTER OF MASS  = ( 0.333816, -0.606175 -0.606117)

-------------
DIPOLE MOMENT
-------------
                                X             Y             Z
Electronic contribution:     -3.03228       2.48867      -0.38721
Nuclear contribution   :      3.91043      -3.20949       0.49928
                        -----------------------------------------
Total Dipole Moment    :      0.87815      -0.72082       0.11207
                        -----------------------------------------
Magnitude (a.u.)       :      1.14162
Magnitude (Debye)      :      2.90176



--------------------
Rotational spectrum 
--------------------
 
Rotational constants in cm-1:     0.337089     0.287076     0.164424 
Rotational constants in MHz : 10105.674786  8606.318847  4929.316729 

 Dipole components along the rotational axes: 
x,y,z [a.u.] :    -0.000001     1.141618     0.000102 
x,y,z [Debye]:    -0.000002     2.901762     0.000259 

 

Timings for individual modules:

Sum of individual times         ...     1509.709 sec (=  25.162 min)
GTO integral calculation        ...        0.465 sec (=   0.008 min)   0.0 %
SCF iterations                  ...        8.589 sec (=   0.143 min)   0.6 %
MDCI module                     ...     1500.655 sec (=  25.011 min)  99.4 %
                             ****ORCA TERMINATED NORMALLY****
TOTAL RUN TIME: 0 days 0 hours 25 minutes 10 seconds 260 msec
