
                                 *****************
                                 * O   R   C   A *
                                 *****************

           --- An Ab Initio, DFT and Semiempirical electronic structure package ---

                  #######################################################
                  #                        -***-                        #
                  #          Department of theory and spectroscopy      #
                  #               Directorship: Frank Neese             #
                  #        Max Planck Institute fuer Kohlenforschung    #
                  #                Kaiser Wilhelm Platz 1               #
                  #                 D-45470 Muelheim/Ruhr               #
                  #                      Germany                        #
                  #                                                     #
                  #                  All rights reserved                #
                  #                        -***-                        #
                  #######################################################


                         Program Version 4.2.1 -  RELEASE  -


 With contributions from (in alphabetic order):
   Daniel Aravena         : Magnetic Suceptibility
   Michael Atanasov       : Ab Initio Ligand Field Theory (pilot matlab implementation)
   Alexander A. Auer      : GIAO ZORA, VPT2
   Ute Becker             : Parallelization
   Giovanni Bistoni       : ED, misc. LED, open-shell LED, HFLD
   Martin Brehm           : Molecular dynamics
   Dmytro Bykov           : SCF Hessian
   Vijay G. Chilkuri      : MRCI spin determinant printing, contributions to CSF-ICE
   Dipayan Datta          : RHF DLPNO-CCSD density
   Achintya Kumar Dutta   : EOM-CC, STEOM-CC
   Dmitry Ganyushin       : Spin-Orbit,Spin-Spin,Magnetic field MRCI
   Miquel Garcia          : C-PCM Hessian, Gaussian charge scheme
   Yang Guo               : DLPNO-NEVPT2, CIM, IAO-localization
   Andreas Hansen         : Spin unrestricted coupled pair/coupled cluster methods
   Benjamin Helmich-Paris : CASSCF linear response (MC-RPA)
   Lee Huntington         : MR-EOM, pCC
   Robert Izsak           : Overlap fitted RIJCOSX, COSX-SCS-MP3, EOM
   Christian Kollmar      : KDIIS, OOCD, Brueckner-CCSD(T), CCSD density
   Simone Kossmann        : Meta GGA functionals, TD-DFT gradient, OOMP2, MP2 Hessian
   Martin Krupicka        : AUTO-CI
   Lucas Lang             : DCDCAS
   Dagmar Lenk            : GEPOL surface, SMD
   Dimitrios Liakos       : Extrapolation schemes; Compound Job, initial MDCI parallelization
   Dimitrios Manganas     : Further ROCIS development; embedding schemes
   Dimitrios Pantazis     : SARC Basis sets
   Taras Petrenko         : DFT Hessian,TD-DFT gradient, ASA, ECA, R-Raman, ABS, FL, XAS/XES, NRVS
   Peter Pinski           : DLPNO-MP2, DLPNO-MP2 Gradient
   Christoph Reimann      : Effective Core Potentials
   Marius Retegan         : Local ZFS, SOC
   Christoph Riplinger    : Optimizer, TS searches, QM/MM, DLPNO-CCSD(T), (RO)-DLPNO pert. Triples
   Tobias Risthaus        : Range-separated hybrids, TD-DFT gradient, RPA, STAB
   Michael Roemelt        : Original ROCIS implementation
   Masaaki Saitow         : Open-shell DLPNO-CCSD energy and density
   Barbara Sandhoefer     : DKH picture change effects
   Avijit Sen             : IP-ROCIS
   Kantharuban Sivalingam : CASSCF convergence, NEVPT2, FIC-MRCI
   Bernardo de Souza      : ESD, SOC TD-DFT
   Georgi Stoychev        : AutoAux, RI-MP2 NMR
   Willem Van den Heuvel  : Paramagnetic NMR
   Boris Wezisla          : Elementary symmetry handling
   Frank Wennmohs         : Technical directorship


 We gratefully acknowledge several colleagues who have allowed us to
 interface, adapt or use parts of their codes:
   Stefan Grimme, W. Hujo, H. Kruse,             : VdW corrections, initial TS optimization,
                  C. Bannwarth                     DFT functionals, gCP, sTDA/sTD-DF
   Ed Valeev, F. Pavosevic, A. Kumar             : LibInt (2-el integral package), F12 methods
   Garnet Chan, S. Sharma, J. Yang, R. Olivares  : DMRG
   Ulf Ekstrom                                   : XCFun DFT Library
   Mihaly Kallay                                 : mrcc  (arbitrary order and MRCC methods)
   Andreas Klamt, Michael Diedenhofen            : otool_cosmo (COSMO solvation model)
   Jiri Pittner, Ondrej Demel                    : Mk-CCSD
   Frank Weinhold                                : gennbo (NPA and NBO analysis)
   Christopher J. Cramer and Donald G. Truhlar   : smd solvation model
   Lars Goerigk                                  : TD-DFT with DH, B97 family of functionals
   V. Asgeirsson, H. Jonsson                     : NEB implementation
   FAccTs GmbH                                   : IRC, NEB, NEB-TS, Multilevel, MM, QM/MM, CI optimization
   S Lehtola, MJT Oliveira, MAL Marques          : LibXC Library


 Your calculation uses the libint2 library for the computation of 2-el integrals
 For citations please refer to: http://libint.valeyev.net

 Your ORCA version has been built with support for libXC version: 4.2.3
 For citations please refer to: https://tddft.org/programs/libxc/

 This ORCA versions uses:
   CBLAS   interface :  Fast vector & matrix operations
   LAPACKE interface :  Fast linear algebra routines
   SCALAPACK package :  Parallel linear algebra routines




***************************************
The coordinates will be read from file: acetone_B3LYP_cc-pVDZ_OPT.xyz
***************************************


----- Orbital basis set information -----
Your calculation utilizes the basis: cc-pVTZ 
       H, B-Ne : Obtained from the ccRepo (grant-hill.group.shef.ac.uk/ccrepo) Feb. 2017
                 T. H. Dunning, Jr., J. Chem. Phys. 90, 1007 (1989)
            He : Obtained from the ccRepo (grant-hill.group.shef.ac.uk/ccrepo) Feb. 2017
                 D. E. Woon, T. H. Dunning, Jr., J. Chem. Phys. 100, 2975 (1994)
  Li-Be, Na-Mg : Obtained from the ccRepo (grant-hill.group.shef.ac.uk/ccrepo) Feb. 2017
                 B. P. Prascher, D. E. Woon, K. A. Peterson, T. H. Dunning, Jr., A. K. Wilson, Theor. Chem. Acc. 128, 69 (2011)
         Al-Ar : Obtained from the ccRepo (grant-hill.group.shef.ac.uk/ccrepo) Feb. 2017
                 D. E. Woon, T. H. Dunning, Jr., J. Chem. Phys. 98, 1358 (1993)
            Ca : Obtained from the Peterson Research Group Website (tyr0.chem.wsu.edu/~kipeters) Feb. 2017
                 J. Koput, K. A. Peterson, J. Phys. Chem. 106, 9595 (2002)
         Sc-Zn : Obtained from the ccRepo (grant-hill.group.shef.ac.uk/ccrepo) Feb. 2017
                 N. B. Balabanov, K. A. Peterson, J. Chem. Phys. 123, 064107 (2005)
                 N. B. Balabanov, K. A. Peterson, J. Chem. Phys. 125, 074110 (2006)
         Ga-Kr : Obtained from the ccRepo (grant-hill.group.shef.ac.uk/ccrepo) Feb. 2017
                 A. K. Wilson, D. E. Woon, K. A. Peterson, T. H. Dunning, Jr., J. Chem. Phys. 110, 7667 (1999)
             Y : Obtained from the ccRepo (grant-hill.group.shef.ac.uk/ccrepo) Feb. 2017
                 K. A. Peterson, D. Figgen, M. Dolg, H. Stoll, J. Chem. Phys. 126, 124101 (2007)
        Ag, Au : Obtained from the Peterson Research Group Website (tyr0.chem.wsu.edu/~kipeters) Feb. 2017
                 K. A. Peterson, C. Puzzarini, Theor. Chem. Acc. 114, 283 (2005)

================================================================================
                                        WARNINGS
                       Please study these warnings very carefully!
================================================================================


WARNING: Geometry Optimization
  ===> : Switching off AutoStart
         For restart on a previous wavefunction, please use MOREAD

INFO   : the flag for use of LIBINT has been found!

================================================================================
                                       INPUT FILE
================================================================================
NAME = acetone_B3LYP_cc-pVTZ_OPT.inp
|  1> # acetone OPT with B3LYP/cc-pVTZ
|  2> 
|  3> ! B3LYP cc-pVTZ TightSCF Opt PAL16
|  4> %maxcore 1000
|  5> 
|  6> * xyzfile 0 1 acetone_B3LYP_cc-pVDZ_OPT.xyz
|  7> 
|  8> 
|  9>                          ****END OF INPUT****
================================================================================

                       *****************************
                       * Geometry Optimization Run *
                       *****************************

Geometry optimization settings:
Update method            Update   .... BFGS
Choice of coordinates    CoordSys .... Z-matrix Internals
Initial Hessian          InHess   .... Almoef's Model

Convergence Tolerances:
Energy Change            TolE     ....  5.0000e-06 Eh
Max. Gradient            TolMAXG  ....  3.0000e-04 Eh/bohr
RMS Gradient             TolRMSG  ....  1.0000e-04 Eh/bohr
Max. Displacement        TolMAXD  ....  4.0000e-03 bohr
RMS Displacement         TolRMSD  ....  2.0000e-03 bohr
Strict Convergence                ....  False
------------------------------------------------------------------------------
                        ORCA OPTIMIZATION COORDINATE SETUP
------------------------------------------------------------------------------

The optimization will be done in new redundant internal coordinates
Making redundant internal coordinates   ...  (new redundants) done
Evaluating the initial hessian          ...  (Almloef) done
Evaluating the coordinates              ...  done
Calculating the B-matrix                .... done
Calculating the G-matrix                .... done
Diagonalizing the G-matrix              .... done
The first mode is                       ....   12
The number of degrees of freedom        ....   24

    -----------------------------------------------------------------
                    Redundant Internal Coordinates


    -----------------------------------------------------------------
         Definition                    Initial Value    Approx d2E/dq
    -----------------------------------------------------------------
      1. B(C   1,C   0)                  1.5190         0.388923   
      2. B(C   2,C   1)                  1.5193         0.388622   
      3. B(O   3,C   1)                  1.2147         1.065455   
      4. B(H   4,C   0)                  1.0983         0.349260   
      5. B(H   5,C   0)                  1.1037         0.342443   
      6. B(H   6,C   0)                  1.1039         0.342233   
      7. B(H   7,C   2)                  1.1038         0.342324   
      8. B(H   8,C   2)                  1.1036         0.342581   
      9. B(H   9,C   2)                  1.0983         0.349254   
     10. A(H   5,C   0,H   6)          106.6919         0.286270   
     11. A(H   4,C   0,H   6)          109.6937         0.287152   
     12. A(C   1,C   0,H   4)          109.8604         0.324836   
     13. A(C   1,C   0,H   5)          110.4316         0.323786   
     14. A(C   1,C   0,H   6)          110.4492         0.323754   
     15. A(H   4,C   0,H   5)          109.6620         0.287180   
     16. A(C   2,C   1,O   3)          121.7704         0.437032   
     17. A(C   0,C   1,O   3)          121.7644         0.437093   
     18. A(C   0,C   1,C   2)          116.4651         0.368349   
     19. A(H   7,C   2,H   9)          109.6972         0.287164   
     20. A(C   1,C   2,H   9)          109.8738         0.324794   
     21. A(H   7,C   2,H   8)          106.6578         0.286300   
     22. A(C   1,C   2,H   8)          110.4061         0.323766   
     23. A(H   8,C   2,H   9)          109.7242         0.287197   
     24. A(C   1,C   2,H   7)          110.4292         0.323727   
     25. D(O   3,C   1,C   0,H   5)    121.1788         0.011257   
     26. D(O   3,C   1,C   0,H   4)      0.0927         0.011257   
     27. D(C   2,C   1,C   0,H   4)   -179.7961         0.011257   
     28. D(O   3,C   1,C   0,H   6)   -121.0444         0.011257   
     29. D(C   2,C   1,C   0,H   6)     59.0668         0.011257   
     30. D(C   2,C   1,C   0,H   5)    -58.7100         0.011257   
     31. D(H   7,C   2,C   1,C   0)     58.7227         0.011240   
     32. D(H   9,C   2,C   1,O   3)     -0.0287         0.011240   
     33. D(H   9,C   2,C   1,C   0)    179.8601         0.011240   
     34. D(H   8,C   2,C   1,O   3)    121.1273         0.011240   
     35. D(H   8,C   2,C   1,C   0)    -58.9839         0.011240   
     36. D(H   7,C   2,C   1,O   3)   -121.1661         0.011240   
    -----------------------------------------------------------------

Number of atoms                         .... 10
Number of degrees of freedom            .... 36

         *************************************************************
         *                GEOMETRY OPTIMIZATION CYCLE   1            *
         *************************************************************
---------------------------------
CARTESIAN COORDINATES (ANGSTROEM)
---------------------------------
  C      0.097099   -1.360958    0.711286
  C      0.097897   -0.255100   -0.330136
  C      1.328433   -0.160293   -1.216091
  O     -0.836780    0.511478   -0.449572
  H     -0.839020   -1.332516    1.285027
  H      0.205871   -2.346600    0.226724
  H      0.956124   -1.247328    1.395138
  H      1.479726   -1.104338   -1.767653
  H      2.232693   -0.003589   -0.603198
  H      1.213898    0.669335   -1.926665

----------------------------
CARTESIAN COORDINATES (A.U.)
----------------------------
  NO LB      ZA    FRAG     MASS         X           Y           Z
   0 C     6.0000    0    12.011    0.183490   -2.571838    1.344135
   1 C     6.0000    0    12.011    0.184998   -0.482069   -0.623867
   2 C     6.0000    0    12.011    2.510374   -0.302911   -2.298078
   3 O     8.0000    0    15.999   -1.581285    0.966553   -0.849567
   4 H     1.0000    0     1.008   -1.585518   -2.518090    2.428349
   5 H     1.0000    0     1.008    0.389040   -4.434432    0.428447
   6 H     1.0000    0     1.008    1.806813   -2.357107    2.636428
   7 H     1.0000    0     1.008    2.796276   -2.086896   -3.340381
   8 H     1.0000    0     1.008    4.219178   -0.006783   -1.139878
   9 H     1.0000    0     1.008    2.293934    1.264859   -3.640869

--------------------------------
INTERNAL COORDINATES (ANGSTROEM)
--------------------------------
 C      0   0   0     0.000000000000     0.00000000     0.00000000
 C      1   0   0     1.519039743819     0.00000000     0.00000000
 C      2   1   0     1.519250479886   116.46505713     0.00000000
 O      2   1   3     1.214712860559   121.76441063   179.88880230
 H      1   2   3     1.098319934720   109.86035425   180.20391500
 H      1   2   3     1.103685805101   110.43155436   301.29002916
 H      1   2   3     1.103852577975   110.44923467    59.06677611
 H      3   2   1     1.103780336188   110.42924889    58.72271157
 H      3   2   1     1.103576004570   110.40608724   301.01605787
 H      3   2   1     1.098324541337   109.87384757   179.86005000

---------------------------
INTERNAL COORDINATES (A.U.)
---------------------------
 C      0   0   0     0.000000000000     0.00000000     0.00000000
 C      1   0   0     2.870569102360     0.00000000     0.00000000
 C      2   1   0     2.870967335813   116.46505713     0.00000000
 O      2   1   3     2.295474637808   121.76441063   179.88880230
 H      1   2   3     2.075523884047   109.86035425   180.20391500
 H      1   2   3     2.085663909537   110.43155436   301.29002916
 H      1   2   3     2.085979064596   110.44923467    59.06677611
 H      3   2   1     2.085842547404   110.42924889    58.72271157
 H      3   2   1     2.085456416605   110.40608724   301.01605787
 H      3   2   1     2.075532589291   109.87384757   179.86005000

---------------------
BASIS SET INFORMATION
---------------------
There are 3 groups of distinct atoms

 Group   1 Type C   : 18s5p2d1f contracted to 4s3p2d1f pattern {8811/311/11/1}
 Group   2 Type O   : 18s5p2d1f contracted to 4s3p2d1f pattern {8811/311/11/1}
 Group   3 Type H   : 5s2p1d contracted to 3s2p1d pattern {311/11/1}

Atom   0C    basis set group =>   1
Atom   1C    basis set group =>   1
Atom   2C    basis set group =>   1
Atom   3O    basis set group =>   2
Atom   4H    basis set group =>   3
Atom   5H    basis set group =>   3
Atom   6H    basis set group =>   3
Atom   7H    basis set group =>   3
Atom   8H    basis set group =>   3
Atom   9H    basis set group =>   3


           ************************************************************
           *        Program running with 16 parallel MPI-processes    *
           *              working on a common directory               *
           ************************************************************
------------------------------------------------------------------------------
                           ORCA GTO INTEGRAL CALCULATION
------------------------------------------------------------------------------

                         BASIS SET STATISTICS AND STARTUP INFO

 # of primitive gaussian shells          ...  152
 # of primitive gaussian functions       ...  296
 # of contracted shells                  ...   76
 # of contracted basis functions         ...  204
 Highest angular momentum                ...    3
 Maximum contraction depth               ...    8
 Integral package used                   ... LIBINT
 Integral threshhold            Thresh   ...  2.500e-11
 Primitive cut-off              TCut     ...  2.500e-12


------------------------------ INTEGRAL EVALUATION ----------------------------


 * One electron integrals 
 Pre-screening matrix                    ... done
 Shell pair data                         ... done (   0.001 sec)



           ************************************************************
           *        Program running with 16 parallel MPI-processes    *
           *              working on a common directory               *
           ************************************************************
-------------------------------------------------------------------------------
                                 ORCA SCF
-------------------------------------------------------------------------------

------------
SCF SETTINGS
------------
Hamiltonian:
 Density Functional     Method          .... DFT(GTOs)
 Exchange Functional    Exchange        .... B88
   X-Alpha parameter    XAlpha          ....  0.666667
   Becke's b parameter  XBeta           ....  0.004200
 Correlation Functional Correlation     .... LYP
 LDA part of GGA corr.  LDAOpt          .... VWN-5
 Gradients option       PostSCFGGA      .... off
 Hybrid DFT is turned on
   Fraction HF Exchange ScalHFX         ....  0.200000
   Scaling of DF-GGA-X  ScalDFX         ....  0.720000
   Scaling of DF-GGA-C  ScalDFC         ....  0.810000
   Scaling of DF-LDA-C  ScalLDAC        ....  1.000000
   Perturbative correction              ....  0.000000
   Density functional embedding theory  .... OFF
   NL short-range parameter             ....  4.800000


General Settings:
 Integral files         IntName         .... acetone_B3LYP_cc-pVTZ_OPT
 Hartree-Fock type      HFTyp           .... RHF
 Total Charge           Charge          ....    0
 Multiplicity           Mult            ....    1
 Number of Electrons    NEL             ....   32
 Basis Dimension        Dim             ....  204
 Nuclear Repulsion      ENuc            ....    118.9029407235 Eh

Convergence Acceleration:
 DIIS                   CNVDIIS         .... on
   Start iteration      DIISMaxIt       ....    12
   Startup error        DIISStart       ....  0.200000
   # of expansion vecs  DIISMaxEq       ....     5
   Bias factor          DIISBfac        ....   1.050
   Max. coefficient     DIISMaxC        ....  10.000
 Newton-Raphson         CNVNR           .... off
 SOSCF                  CNVSOSCF        .... on
   Start iteration      SOSCFMaxIt      ....   150
   Startup grad/error   SOSCFStart      ....  0.003300
 Level Shifting         CNVShift        .... on
   Level shift para.    LevelShift      ....    0.2500
   Turn off err/grad.   ShiftErr        ....    0.0010
 Zerner damping         CNVZerner       .... off
 Static damping         CNVDamp         .... on
   Fraction old density DampFac         ....    0.7000
   Max. Damping (<1)    DampMax         ....    0.9800
   Min. Damping (>=0)   DampMin         ....    0.0000
   Turn off err/grad.   DampErr         ....    0.1000
 Fernandez-Rico         CNVRico         .... off

SCF Procedure:
 Maximum # iterations   MaxIter         ....   125
 SCF integral mode      SCFMode         .... Direct
   Integral package                     .... LIBINT
 Reset frequency        DirectResetFreq ....    20
 Integral Threshold     Thresh          ....  2.500e-11 Eh
 Primitive CutOff       TCut            ....  2.500e-12 Eh

Convergence Tolerance:
 Convergence Check Mode ConvCheckMode   .... Total+1el-Energy
 Convergence forced     ConvForced      .... 0
 Energy Change          TolE            ....  1.000e-08 Eh
 1-El. energy change                    ....  1.000e-05 Eh
 Orbital Gradient       TolG            ....  1.000e-05
 Orbital Rotation angle TolX            ....  1.000e-05
 DIIS Error             TolErr          ....  5.000e-07


Diagonalization of the overlap matrix:
Smallest eigenvalue                        ... 7.237e-04
Time for diagonalization                   ...    0.012 sec
Threshold for overlap eigenvalues          ... 1.000e-08
Number of eigenvalues below threshold      ... 0
Time for construction of square roots      ...    0.009 sec
Total time needed                          ...    0.021 sec

-------------------
DFT GRID GENERATION
-------------------

General Integration Accuracy     IntAcc      ...  4.340
Radial Grid Type                 RadialGrid  ... Gauss-Chebyshev
Angular Grid (max. acc.)         AngularGrid ... Lebedev-110
Angular grid pruning method      GridPruning ... 3 (G Style)
Weight generation scheme         WeightScheme... Becke
Basis function cutoff            BFCut       ...    1.0000e-11
Integration weight cutoff        WCut        ...    1.0000e-14
Grids for H and He will be reduced by one unit

# of grid points (after initial pruning)     ...  11448 (   0.0 sec)
# of grid points (after weights+screening)   ...  10888 (   0.0 sec)
nearest neighbour list constructed           ...    0.0 sec
Grid point re-assignment to atoms done       ...    0.0 sec
Grid point division into batches done        ...    0.0 sec
Reduced shell lists constructed in    0.0 sec

Total number of grid points                  ...    10888
Total number of batches                      ...      176
Average number of points per batch           ...       61
Average number of grid points per atom       ...     1089
Average number of shells per batch           ...    64.50 (84.87%)
Average number of basis functions per batch  ...   171.83 (84.23%)
Average number of large shells per batch     ...    55.75 (86.43%)
Average number of large basis fcns per batch ...   145.42 (84.63%)
Maximum spatial batch extension              ...   1.84,  1.87,  2.00 au
Average spatial batch extension              ...   0.09,  0.10,  0.09 au

Time for grid setup =    0.022 sec

------------------------------
INITIAL GUESS: MODEL POTENTIAL
------------------------------
Loading Hartree-Fock densities                     ... done
Calculating cut-offs                               ... done
Setting up the integral package                    ... done
Initializing the effective Hamiltonian             ... done
Starting the Coulomb interaction                   ... done (   0.0 sec)
Reading the grid                                   ... done
Mapping shells                                     ... done
Starting the XC term evaluation                    ... done (   0.0 sec)
  promolecular density results
     # of electrons  =     31.992772593
     EX              =    -25.356202419
     EC              =     -1.048362228
     EX+EC           =    -26.404564647
Transforming the Hamiltonian                       ... done (   0.0 sec)
Diagonalizing the Hamiltonian                      ... done (   0.0 sec)
Back transforming the eigenvectors                 ... done (   0.0 sec)
Now organizing SCF variables                       ... done
                      ------------------
                      INITIAL GUESS DONE (   0.1 sec)
                      ------------------
--------------
SCF ITERATIONS
--------------
ITER       Energy         Delta-E        Max-DP      RMS-DP      [F,P]     Damp
               ***  Starting incremental Fock matrix formation  ***
  0   -192.9264868471   0.000000000000 0.10891946  0.00177431  0.3023184 0.7000
  1   -193.0176533449  -0.091166497857 0.08709549  0.00133501  0.1085821 0.7000
                               ***Turning on DIIS***
  2   -193.0499911523  -0.032337807333 0.08710903  0.00167735  0.0436905 0.0000
  3   -193.1020122146  -0.052021062291 0.07927229  0.00111531  0.0565473 0.0000
  4   -193.1137656538  -0.011753439223 0.01882438  0.00029116  0.0153477 0.0000
  5   -193.1148916033  -0.001125949506 0.00774550  0.00011439  0.0040909 0.0000
                      *** Initiating the SOSCF procedure ***
                           *** Shutting down DIIS ***
                      *** Re-Reading the Fockian *** 
                      *** Removing any level shift *** 
ITER      Energy       Delta-E        Grad      Rot      Max-DP    RMS-DP
  6   -193.11493954  -0.0000479349  0.000456  0.000456  0.005152  0.000074
               *** Restarting incremental Fock matrix formation ***
  7   -193.11494315  -0.0000036151  0.000086  0.000259  0.000167  0.000004
  8   -193.11494303   0.0000001260  0.000163  0.000194  0.000209  0.000004
  9   -193.11494330  -0.0000002751  0.000046  0.000079  0.000061  0.000002
 10   -193.11494327   0.0000000277  0.000052  0.000042  0.000043  0.000001
                  ***Gradient check signals convergence***
              ***Rediagonalizing the Fockian in SOSCF/NRSCF***

               *****************************************************
               *                     SUCCESS                       *
               *           SCF CONVERGED AFTER  11 CYCLES          *
               *****************************************************

Setting up the final grid:

General Integration Accuracy     IntAcc      ...  4.670
Radial Grid Type                 RadialGrid  ... Gauss-Chebyshev
Angular Grid (max. acc.)         AngularGrid ... Lebedev-302
Angular grid pruning method      GridPruning ... 3 (G Style)
Weight generation scheme         WeightScheme... Becke
Basis function cutoff            BFCut       ...    1.0000e-11
Integration weight cutoff        WCut        ...    1.0000e-14
Grids for H and He will be reduced by one unit

# of grid points (after initial pruning)     ...  45212 (   0.0 sec)
# of grid points (after weights+screening)   ...  42696 (   0.0 sec)
nearest neighbour list constructed           ...    0.0 sec
Grid point re-assignment to atoms done       ...    0.0 sec
Grid point division into batches done        ...    0.1 sec
Reduced shell lists constructed in    0.1 sec

Total number of grid points                  ...    42696
Total number of batches                      ...      673
Average number of points per batch           ...       63
Average number of grid points per atom       ...     4270
Average number of shells per batch           ...    66.36 (87.32%)
Average number of basis functions per batch  ...   176.27 (86.41%)
Average number of large shells per batch     ...    57.14 (86.10%)
Average number of large basis fcns per batch ...   148.32 (84.14%)
Maximum spatial batch extension              ...   2.11,  2.74,  2.95 au
Average spatial batch extension              ...   0.06,  0.06,  0.06 au

Final grid set up in    0.2 sec
Final integration                            ... done (   0.1 sec)
Change in XC energy                          ...     0.000049045
Integrated number of electrons               ...    31.999912970
Previous integrated no of electrons          ...    32.000386950

----------------
TOTAL SCF ENERGY
----------------

Total Energy       :         -193.11489428 Eh           -5254.92343 eV

Components:
Nuclear Repulsion  :          118.90294072 Eh            3235.51351 eV
Electronic Energy  :         -312.01783500 Eh           -8490.43694 eV
One Electron Energy:         -496.47161581 Eh          -13509.67949 eV
Two Electron Energy:          184.45378081 Eh            5019.24255 eV

Virial components:
Potential Energy   :         -384.92726775 Eh          -10474.40346 eV
Kinetic Energy     :          191.81237348 Eh            5219.48004 eV
Virial Ratio       :            2.00679060


DFT components:
N(Alpha)           :       15.999956485049 electrons
N(Beta)            :       15.999956485049 electrons
N(Total)           :       31.999912970097 electrons
E(X)               :      -20.542617172821 Eh       
E(C)               :       -1.247137196007 Eh       
E(XC)              :      -21.789754368828 Eh       
DFET-embed. en.    :        0.000000000000 Eh       

---------------
SCF CONVERGENCE
---------------

  Last Energy change         ...   -4.6141e-08  Tolerance :   1.0000e-08
  Last MAX-Density change    ...    2.3602e-06  Tolerance :   1.0000e-07
  Last RMS-Density change    ...    5.6288e-08  Tolerance :   5.0000e-09
  Last Orbital Gradient      ...    9.0719e-07  Tolerance :   1.0000e-05
  Last Orbital Rotation      ...    1.7323e-06  Tolerance :   1.0000e-05

             **** THE GBW FILE WAS UPDATED (acetone_B3LYP_cc-pVTZ_OPT.gbw) ****
             **** DENSITY FILE WAS UPDATED (acetone_B3LYP_cc-pVTZ_OPT.scfp) ****
             **** ENERGY FILE WAS UPDATED (acetone_B3LYP_cc-pVTZ_OPT.en.tmp) ****
             **** THE GBW FILE WAS UPDATED (acetone_B3LYP_cc-pVTZ_OPT.gbw) ****
             **** DENSITY FILE WAS UPDATED (acetone_B3LYP_cc-pVTZ_OPT.scfp) ****
----------------
ORBITAL ENERGIES
----------------

  NO   OCC          E(Eh)            E(eV) 
   0   2.0000     -19.115816      -520.1678 
   1   2.0000     -10.266583      -279.3679 
   2   2.0000     -10.181674      -277.0574 
   3   2.0000     -10.181669      -277.0573 
   4   2.0000      -1.041027       -28.3278 
   5   2.0000      -0.769339       -20.9348 
   6   2.0000      -0.710544       -19.3349 
   7   2.0000      -0.533842       -14.5266 
   8   2.0000      -0.461930       -12.5698 
   9   2.0000      -0.460601       -12.5336 
  10   2.0000      -0.452360       -12.3093 
  11   2.0000      -0.404230       -10.9997 
  12   2.0000      -0.398201       -10.8356 
  13   2.0000      -0.380797       -10.3620 
  14   2.0000      -0.353305        -9.6139 
  15   2.0000      -0.252607        -6.8738 
  16   0.0000      -0.020535        -0.5588 
  17   0.0000       0.026608         0.7240 
  18   0.0000       0.078523         2.1367 
  19   0.0000       0.092839         2.5263 
  20   0.0000       0.094781         2.5791 
  21   0.0000       0.121782         3.3138 
  22   0.0000       0.128226         3.4892 
  23   0.0000       0.141837         3.8596 
  24   0.0000       0.196725         5.3532 
  25   0.0000       0.214253         5.8301 
  26   0.0000       0.244334         6.6487 
  27   0.0000       0.252826         6.8797 
  28   0.0000       0.274666         7.4740 
  29   0.0000       0.320395         8.7184 
  30   0.0000       0.344973         9.3872 
  31   0.0000       0.361054         9.8248 
  32   0.0000       0.386769        10.5245 
  33   0.0000       0.421788        11.4774 
  34   0.0000       0.432574        11.7709 
  35   0.0000       0.438507        11.9324 
  36   0.0000       0.451576        12.2880 
  37   0.0000       0.460989        12.5441 
  38   0.0000       0.473285        12.8788 
  39   0.0000       0.474068        12.9000 
  40   0.0000       0.476224        12.9587 
  41   0.0000       0.552412        15.0319 
  42   0.0000       0.564077        15.3493 
  43   0.0000       0.565364        15.3843 
  44   0.0000       0.605178        16.4677 
  45   0.0000       0.651076        17.7167 
  46   0.0000       0.705735        19.2040 
  47   0.0000       0.709874        19.3167 
  48   0.0000       0.781172        21.2568 
  49   0.0000       0.842660        22.9299 
  50   0.0000       0.844461        22.9790 
  51   0.0000       0.849346        23.1119 
  52   0.0000       0.886123        24.1126 
  53   0.0000       0.916389        24.9362 
  54   0.0000       0.923301        25.1243 
  55   0.0000       0.961070        26.1520 
  56   0.0000       0.964578        26.2475 
  57   0.0000       0.989491        26.9254 
  58   0.0000       1.009704        27.4754 
  59   0.0000       1.036697        28.2099 
  60   0.0000       1.056934        28.7606 
  61   0.0000       1.073256        29.2048 
  62   0.0000       1.094911        29.7940 
  63   0.0000       1.136163        30.9166 
  64   0.0000       1.154464        31.4146 
  65   0.0000       1.226664        33.3792 
  66   0.0000       1.235902        33.6306 
  67   0.0000       1.244230        33.8572 
  68   0.0000       1.261847        34.3366 
  69   0.0000       1.286780        35.0151 
  70   0.0000       1.291464        35.1425 
  71   0.0000       1.302195        35.4345 
  72   0.0000       1.328097        36.1394 
  73   0.0000       1.365618        37.1604 
  74   0.0000       1.384188        37.6657 
  75   0.0000       1.393680        37.9240 
  76   0.0000       1.439356        39.1669 
  77   0.0000       1.484642        40.3991 
  78   0.0000       1.494351        40.6634 
  79   0.0000       1.551795        42.2265 
  80   0.0000       1.710115        46.5346 
  81   0.0000       1.801546        49.0226 
  82   0.0000       1.828419        49.7538 
  83   0.0000       1.880229        51.1636 
  84   0.0000       2.102620        57.2152 
  85   0.0000       2.106621        57.3241 
  86   0.0000       2.109458        57.4013 
  87   0.0000       2.155552        58.6555 
  88   0.0000       2.203220        59.9527 
  89   0.0000       2.292047        62.3698 
  90   0.0000       2.357014        64.1376 
  91   0.0000       2.367930        64.4347 
  92   0.0000       2.428308        66.0776 
  93   0.0000       2.440667        66.4139 
  94   0.0000       2.464034        67.0498 
  95   0.0000       2.562404        69.7266 
  96   0.0000       2.564585        69.7859 
  97   0.0000       2.569287        69.9139 
  98   0.0000       2.583744        70.3073 
  99   0.0000       2.729287        74.2677 
 100   0.0000       2.734371        74.4060 
 101   0.0000       2.764088        75.2147 
 102   0.0000       2.769039        75.3494 
 103   0.0000       2.784628        75.7736 
 104   0.0000       2.788318        75.8740 
 105   0.0000       2.830930        77.0335 
 106   0.0000       2.847017        77.4713 
 107   0.0000       2.852858        77.6302 
 108   0.0000       2.898112        78.8616 
 109   0.0000       2.939784        79.9956 
 110   0.0000       2.970501        80.8314 
 111   0.0000       2.978146        81.0395 
 112   0.0000       2.979213        81.0685 
 113   0.0000       3.012897        81.9851 
 114   0.0000       3.017373        82.1069 
 115   0.0000       3.074163        83.6522 
 116   0.0000       3.076106        83.7051 
 117   0.0000       3.092672        84.1559 
 118   0.0000       3.129690        85.1632 
 119   0.0000       3.202810        87.1529 
 120   0.0000       3.224990        87.7564 
 121   0.0000       3.269505        88.9678 
 122   0.0000       3.293207        89.6127 
 123   0.0000       3.296699        89.7077 
 124   0.0000       3.299086        89.7727 
 125   0.0000       3.381183        92.0067 
 126   0.0000       3.381958        92.0278 
 127   0.0000       3.392961        92.3272 
 128   0.0000       3.436208        93.5040 
 129   0.0000       3.449196        93.8574 
 130   0.0000       3.481248        94.7296 
 131   0.0000       3.484188        94.8096 
 132   0.0000       3.491462        95.0075 
 133   0.0000       3.596170        97.8568 
 134   0.0000       3.614232        98.3482 
 135   0.0000       3.670038        99.8668 
 136   0.0000       3.676014       100.0294 
 137   0.0000       3.743355       101.8619 
 138   0.0000       3.746105       101.9367 
 139   0.0000       3.764900       102.4481 
 140   0.0000       3.789778       103.1251 
 141   0.0000       3.796845       103.3174 
 142   0.0000       3.822329       104.0109 
 143   0.0000       3.867892       105.2507 
 144   0.0000       3.883712       105.6812 
 145   0.0000       3.950437       107.4969 
 146   0.0000       3.970034       108.0301 
 147   0.0000       3.997330       108.7729 
 148   0.0000       4.002730       108.9198 
 149   0.0000       4.037716       109.8718 
 150   0.0000       4.048118       110.1549 
 151   0.0000       4.088001       111.2402 
 152   0.0000       4.137907       112.5982 
 153   0.0000       4.155718       113.0828 
 154   0.0000       4.166199       113.3680 
 155   0.0000       4.189106       113.9914 
 156   0.0000       4.252594       115.7190 
 157   0.0000       4.259441       115.9053 
 158   0.0000       4.305094       117.1476 
 159   0.0000       4.306816       117.1944 
 160   0.0000       4.342782       118.1731 
 161   0.0000       4.425148       120.4144 
 162   0.0000       4.449724       121.0831 
 163   0.0000       4.561041       124.1122 
 164   0.0000       4.739862       128.9782 
 165   0.0000       4.754201       129.3684 
 166   0.0000       4.769105       129.7739 
 167   0.0000       4.779129       130.0467 
 168   0.0000       4.865487       132.3966 
 169   0.0000       4.988763       135.7512 
 170   0.0000       5.029163       136.8505 
 171   0.0000       5.045861       137.3049 
 172   0.0000       5.064922       137.8235 
 173   0.0000       5.071012       137.9893 
 174   0.0000       5.091028       138.5339 
 175   0.0000       5.097950       138.7223 
 176   0.0000       5.113295       139.1398 
 177   0.0000       5.179259       140.9348 
 178   0.0000       5.179373       140.9379 
 179   0.0000       5.219377       142.0265 
 180   0.0000       5.238573       142.5488 
 181   0.0000       5.260072       143.1338 
 182   0.0000       5.271308       143.4396 
 183   0.0000       5.315827       144.6510 
 184   0.0000       5.364753       145.9823 
 185   0.0000       5.490271       149.3979 
 186   0.0000       5.600088       152.3861 
 187   0.0000       5.698276       155.0580 
 188   0.0000       5.795844       157.7129 
 189   0.0000       5.797199       157.7498 
 190   0.0000       5.839166       158.8918 
 191   0.0000       5.846374       159.0879 
 192   0.0000       6.221799       169.3038 
 193   0.0000       6.247860       170.0129 
 194   0.0000       6.382789       173.6845 
 195   0.0000       6.429482       174.9551 
 196   0.0000       6.632943       180.4915 
 197   0.0000       6.855684       186.5527 
 198   0.0000       7.020665       191.0420 
 199   0.0000       7.025708       191.1792 
 200   0.0000       8.674294       236.0396 
 201   0.0000      12.787783       347.9733 
 202   0.0000      13.122829       357.0903 
 203   0.0000      13.197321       359.1174 

                    ********************************
                    * MULLIKEN POPULATION ANALYSIS *
                    ********************************

-----------------------
MULLIKEN ATOMIC CHARGES
-----------------------
   0 C :   -0.287178
   1 C :    0.219309
   2 C :   -0.288380
   3 O :   -0.261506
   4 H :    0.116191
   5 H :    0.093985
   6 H :    0.097880
   7 H :    0.098844
   8 H :    0.095128
   9 H :    0.115726
Sum of atomic charges:   -0.0000000

--------------------------------
MULLIKEN REDUCED ORBITAL CHARGES
--------------------------------
  0 C s       :     3.271829  s :     3.271829
      pz      :     0.957986  p :     2.965899
      px      :     1.047974
      py      :     0.959939
      dz2     :     0.005295  d :     0.045767
      dxz     :     0.014331
      dyz     :     0.011495
      dx2y2   :     0.011041
      dxy     :     0.003605
      f0      :     0.000100  f :     0.003683
      f+1     :     0.000149
      f-1     :     0.000742
      f+2     :     0.001700
      f-2     :     0.000485
      f+3     :     0.000171
      f-3     :     0.000336
  1 C s       :     3.184046  s :     3.184046
      pz      :     0.807888  p :     2.392428
      px      :     0.802126
      py      :     0.782414
      dz2     :     0.024818  d :     0.188291
      dxz     :     0.040286
      dyz     :     0.030042
      dx2y2   :     0.057382
      dxy     :     0.035762
      f0      :     0.001789  f :     0.015926
      f+1     :     0.001694
      f-1     :     0.001388
      f+2     :     0.001166
      f-2     :     0.003535
      f+3     :     0.003676
      f-3     :     0.002678
  2 C s       :     3.266625  s :     3.266625
      pz      :     0.976379  p :     2.971866
      px      :     0.961806
      py      :     1.033680
      dz2     :     0.004555  d :     0.046204
      dxz     :     0.013227
      dyz     :     0.013170
      dx2y2   :     0.010812
      dxy     :     0.004439
      f0      :     0.000158  f :     0.003684
      f+1     :     0.000595
      f-1     :     0.000113
      f+2     :     0.001707
      f-2     :     0.000474
      f+3     :     0.000337
      f-3     :     0.000301
  3 O s       :     3.728416  s :     3.728416
      pz      :     1.583071  p :     4.497349
      px      :     1.468285
      py      :     1.445994
      dz2     :     0.003492  d :     0.033484
      dxz     :     0.006149
      dyz     :     0.003905
      dx2y2   :     0.009956
      dxy     :     0.009982
      f0      :     0.000269  f :     0.002256
      f+1     :     0.000237
      f-1     :     0.000167
      f+2     :     0.000048
      f-2     :     0.000375
      f+3     :     0.000605
      f-3     :     0.000554
  4 H s       :     0.852211  s :     0.852211
      pz      :     0.009651  p :     0.029048
      px      :     0.009840
      py      :     0.009557
      dz2     :     0.000511  d :     0.002550
      dxz     :     0.000615
      dyz     :     0.000331
      dx2y2   :     0.000429
      dxy     :     0.000664
  5 H s       :     0.872137  s :     0.872137
      pz      :     0.010250  p :     0.031338
      px      :     0.010390
      py      :     0.010698
      dz2     :     0.000460  d :     0.002540
      dxz     :     0.000200
      dyz     :     0.000676
      dx2y2   :     0.000581
      dxy     :     0.000623
  6 H s       :     0.867802  s :     0.867802
      pz      :     0.010089  p :     0.031761
      px      :     0.010134
      py      :     0.011538
      dz2     :     0.000621  d :     0.002557
      dxz     :     0.000519
      dyz     :     0.000467
      dx2y2   :     0.000432
      dxy     :     0.000517
  7 H s       :     0.867147  s :     0.867147
      pz      :     0.010680  p :     0.031508
      px      :     0.011545
      py      :     0.009283
      dz2     :     0.000452  d :     0.002501
      dxz     :     0.000392
      dyz     :     0.000558
      dx2y2   :     0.000459
      dxy     :     0.000640
  8 H s       :     0.871063  s :     0.871063
      pz      :     0.009866  p :     0.031263
      px      :     0.011057
      py      :     0.010341
      dz2     :     0.000611  d :     0.002546
      dxz     :     0.000531
      dyz     :     0.000301
      dx2y2   :     0.000594
      dxy     :     0.000509
  9 H s       :     0.852969  s :     0.852969
      pz      :     0.009582  p :     0.028703
      px      :     0.009133
      py      :     0.009988
      dz2     :     0.000640  d :     0.002601
      dxz     :     0.000497
      dyz     :     0.000515
      dx2y2   :     0.000427
      dxy     :     0.000522


                     *******************************
                     * LOEWDIN POPULATION ANALYSIS *
                     *******************************

----------------------
LOEWDIN ATOMIC CHARGES
----------------------
   0 C :    0.092665
   1 C :   -0.295036
   2 C :    0.092385
   3 O :    0.195113
   4 H :   -0.015639
   5 H :   -0.013661
   6 H :   -0.013427
   7 H :   -0.013225
   8 H :   -0.013411
   9 H :   -0.015763

-------------------------------
LOEWDIN REDUCED ORBITAL CHARGES
-------------------------------
  0 C s       :     2.680806  s :     2.680806
      pz      :     0.969485  p :     2.937697
      px      :     0.997071
      py      :     0.971141
      dz2     :     0.023767  d :     0.260857
      dxz     :     0.076996
      dyz     :     0.071213
      dx2y2   :     0.071135
      dxy     :     0.017746
      f0      :     0.004588  f :     0.027975
      f+1     :     0.002149
      f-1     :     0.004788
      f+2     :     0.005892
      f-2     :     0.002976
      f+3     :     0.003615
      f-3     :     0.003967
  1 C s       :     2.768561  s :     2.768561
      pz      :     0.847111  p :     2.652409
      px      :     0.935124
      py      :     0.870175
      dz2     :     0.103790  d :     0.765670
      dxz     :     0.159993
      dyz     :     0.125847
      dx2y2   :     0.210283
      dxy     :     0.165757
      f0      :     0.013310  f :     0.108395
      f+1     :     0.013461
      f-1     :     0.007738
      f+2     :     0.004621
      f-2     :     0.024805
      f+3     :     0.024026
      f-3     :     0.020436
  2 C s       :     2.680745  s :     2.680745
      pz      :     0.975012  p :     2.938183
      px      :     0.968885
      py      :     0.994287
      dz2     :     0.019458  d :     0.260721
      dxz     :     0.077314
      dyz     :     0.070981
      dx2y2   :     0.070238
      dxy     :     0.022730
      f0      :     0.004585  f :     0.027966
      f+1     :     0.004482
      f-1     :     0.001908
      f+2     :     0.005880
      f-2     :     0.002594
      f+3     :     0.004124
      f-3     :     0.004394
  3 O s       :     3.374485  s :     3.374485
      pz      :     1.463078  p :     4.356534
      px      :     1.474464
      py      :     1.418991
      dz2     :     0.008271  d :     0.068375
      dxz     :     0.010904
      dyz     :     0.008238
      dx2y2   :     0.017397
      dxy     :     0.023566
      f0      :     0.000641  f :     0.005494
      f+1     :     0.000602
      f-1     :     0.000382
      f+2     :     0.000066
      f-2     :     0.001017
      f+3     :     0.001363
      f-3     :     0.001422
  4 H s       :     0.836633  s :     0.836633
      pz      :     0.048467  p :     0.150353
      px      :     0.064589
      py      :     0.037296
      dz2     :     0.005098  d :     0.028653
      dxz     :     0.008407
      dyz     :     0.002765
      dx2y2   :     0.005998
      dxy     :     0.006385
  5 H s       :     0.831435  s :     0.831435
      pz      :     0.045521  p :     0.154087
      px      :     0.041836
      py      :     0.066730
      dz2     :     0.004326  d :     0.028139
      dxz     :     0.002231
      dyz     :     0.007883
      dx2y2   :     0.006633
      dxy     :     0.007066
  6 H s       :     0.831100  s :     0.831100
      pz      :     0.052362  p :     0.154220
      px      :     0.059872
      py      :     0.041986
      dz2     :     0.006112  d :     0.028107
      dxz     :     0.007606
      dyz     :     0.004043
      dx2y2   :     0.005269
      dxy     :     0.005077
  7 H s       :     0.830973  s :     0.830973
      pz      :     0.048070  p :     0.154103
      px      :     0.042806
      py      :     0.063227
      dz2     :     0.004795  d :     0.028149
      dxz     :     0.002885
      dyz     :     0.007999
      dx2y2   :     0.005924
      dxy     :     0.006546
  8 H s       :     0.831125  s :     0.831125
      pz      :     0.048921  p :     0.154135
      px      :     0.063378
      py      :     0.041836
      dz2     :     0.005374  d :     0.028151
      dxz     :     0.007433
      dyz     :     0.003410
      dx2y2   :     0.006043
      dxy     :     0.005892
  9 H s       :     0.836684  s :     0.836684
      pz      :     0.054056  p :     0.150456
      px      :     0.037026
      py      :     0.059375
      dz2     :     0.006514  d :     0.028622
      dxz     :     0.004191
      dyz     :     0.007826
      dx2y2   :     0.005164
      dxy     :     0.004927


                      *****************************
                      * MAYER POPULATION ANALYSIS *
                      *****************************

  NA   - Mulliken gross atomic population
  ZA   - Total nuclear charge
  QA   - Mulliken gross atomic charge
  VA   - Mayer's total valence
  BVA  - Mayer's bonded valence
  FA   - Mayer's free valence

  ATOM       NA         ZA         QA         VA         BVA        FA
  0 C      6.2872     6.0000    -0.2872     3.7545     3.7545    -0.0000
  1 C      5.7807     6.0000     0.2193     4.1057     4.1057    -0.0000
  2 C      6.2884     6.0000    -0.2884     3.7572     3.7572     0.0000
  3 O      8.2615     8.0000    -0.2615     2.2802     2.2802    -0.0000
  4 H      0.8838     1.0000     0.1162     1.0110     1.0110    -0.0000
  5 H      0.9060     1.0000     0.0940     0.9912     0.9912    -0.0000
  6 H      0.9021     1.0000     0.0979     0.9913     0.9913     0.0000
  7 H      0.9012     1.0000     0.0988     0.9925     0.9925    -0.0000
  8 H      0.9049     1.0000     0.0951     0.9915     0.9915     0.0000
  9 H      0.8843     1.0000     0.1157     1.0075     1.0075    -0.0000

  Mayer bond orders larger than 0.100000
B(  0-C ,  1-C ) :   0.9229 B(  0-C ,  4-H ) :   0.9697 B(  0-C ,  5-H ) :   0.9505 
B(  0-C ,  6-H ) :   0.9526 B(  1-C ,  2-C ) :   0.9287 B(  1-C ,  3-O ) :   2.2121 
B(  2-C ,  7-H ) :   0.9522 B(  2-C ,  8-H ) :   0.9501 B(  2-C ,  9-H ) :   0.9679 


-------
TIMINGS
-------

Total SCF time: 0 days 0 hours 0 min 7 sec 

Total time                  ....       7.230 sec
Sum of individual times     ....       6.942 sec  ( 96.0%)

Fock matrix formation       ....       6.246 sec  ( 86.4%)
  XC integration            ....       0.289 sec  (  4.6% of F)
    Basis function eval.    ....       0.032 sec  ( 10.9% of XC)
    Density eval.           ....       0.065 sec  ( 22.4% of XC)
    XC-Functional eval.     ....       0.004 sec  (  1.5% of XC)
    XC-Potential eval.      ....       0.062 sec  ( 21.4% of XC)
Diagonalization             ....       0.081 sec  (  1.1%)
Density matrix formation    ....       0.067 sec  (  0.9%)
Population analysis         ....       0.015 sec  (  0.2%)
Initial guess               ....       0.126 sec  (  1.7%)
Orbital Transformation      ....       0.000 sec  (  0.0%)
Orbital Orthonormalization  ....       0.000 sec  (  0.0%)
DIIS solution               ....       0.037 sec  (  0.5%)
SOSCF solution              ....       0.173 sec  (  2.4%)
Grid generation             ....       0.197 sec  (  2.7%)

-------------------------   --------------------
FINAL SINGLE POINT ENERGY      -193.114894275587
-------------------------   --------------------



           ************************************************************
           *        Program running with 16 parallel MPI-processes    *
           *              working on a common directory               *
           ************************************************************
------------------------------------------------------------------------------
                         ORCA SCF GRADIENT CALCULATION
------------------------------------------------------------------------------

Gradient of the Kohn-Sham DFT energy:
Kohn-Sham wavefunction type      ... RKS
Hartree-Fock exchange scaling    ...    0.200
Number of operators              ...    1
Number of atoms                  ...   10
Basis set dimensions             ...  204
Integral neglect threshold       ... 2.5e-11
Integral primitive cutoff        ... 2.5e-12

Nuclear repulsion gradient       ... done
One Electron Gradient            ... done
Pre-screening matrix             ... done
Starting the two electron gradient:
Two electron gradient done
Exchange-correlation gradient    ... done

------------------
CARTESIAN GRADIENT
------------------

   1   C   :    0.000600847    0.002802510   -0.003075682
   2   C   :    0.003791865   -0.002876022    0.000601556
   3   C   :   -0.003125126   -0.000834556    0.002648641
   4   O   :   -0.007129337    0.005709672   -0.000945765
   5   H   :   -0.006158847    0.000367720    0.003581591
   6   H   :    0.000756497   -0.006214255   -0.002840523
   7   H   :    0.005361613    0.000529163    0.004286524
   8   H   :    0.001148111   -0.005838965   -0.003430662
   9   H   :    0.005734128    0.000907295    0.003702531
  10   H   :   -0.000979751    0.005447439   -0.004528212

Difference to translation invariance:
           :    0.0000000000    0.0000000000   -0.0000000000

Norm of the cartesian gradient     ...    0.0208272146
RMS gradient                       ...    0.0038025117
MAX gradient                       ...    0.0071293372

-------
TIMINGS
-------

Total SCF gradient time            ...        2.367 sec

One electron gradient       ....       0.009 sec  (  0.4%)
Prescreening matrices       ....       0.038 sec  (  1.6%)
Two electron gradient       ....       1.942 sec  ( 82.1%)
XC gradient                 ....       0.229 sec  (  9.7%)
------------------------------------------------------------------------------
                         ORCA GEOMETRY RELAXATION STEP
------------------------------------------------------------------------------

Reading the OPT-File                    .... done
Getting information on internals        .... done
Copying old internal coords+grads       .... done
Making the new internal coordinates     .... (new redundants).... done
Validating the new internal coordinates .... (new redundants).... done
Calculating the B-matrix                .... done
Calculating the G,G- and P matrices     .... done
Transforming gradient to internals      .... done
Projecting the internal gradient        .... done
Number of atoms                         ....  10
Number of internal coordinates          ....  36
Current Energy                          ....  -193.114894276 Eh
Current gradient norm                   ....     0.020827215 Eh/bohr
Maximum allowed component of the step   ....  0.300
Current trust radius                    ....  0.300
Evaluating the initial hessian          ....  (Almloef) done
Projecting the Hessian                  .... done
Forming the augmented Hessian           .... done
Diagonalizing the augmented Hessian     .... done
Last element of RFO vector              ....  0.998647219
Lowest eigenvalues of augmented Hessian:
 -0.000977338  0.011240371  0.011249421  0.011256858  0.133112223
Length of the computed step             ....  0.052067866
The final length of the internal step   ....  0.052067866
Converting the step to cartesian space:
 Initial RMS(Int)=    0.0086779776
Transforming coordinates:
 Iter   0:  RMS(Cart)=    0.0106441538 RMS(Int)=    0.0086782159
 Iter   1:  RMS(Cart)=    0.0000099521 RMS(Int)=    0.0000065198
 Iter   2:  RMS(Cart)=    0.0000000965 RMS(Int)=    0.0000000567
done
Storing new coordinates                 .... done

                                .--------------------.
          ----------------------|Geometry convergence|-------------------------
          Item                value                   Tolerance       Converged
          ---------------------------------------------------------------------
          RMS gradient        0.0033204603            0.0001000000      NO
          MAX gradient        0.0091819837            0.0003000000      NO
          RMS step            0.0086779776            0.0020000000      NO
          MAX step            0.0203948903            0.0040000000      NO
          ........................................................
          Max(Bonds)      0.0108      Max(Angles)    0.10
          Max(Dihed)        0.16      Max(Improp)    0.00
          ---------------------------------------------------------------------

The optimization has not yet converged - more geometry cycles are needed


    ---------------------------------------------------------------------------
                         Redundant Internal Coordinates
                            (Angstroem and degrees)

        Definition                    Value    dE/dq     Step     New-Value
    ----------------------------------------------------------------------------
     1. B(C   1,C   0)                1.5190  0.003160 -0.0043    1.5148   
     2. B(C   2,C   1)                1.5193  0.003176 -0.0043    1.5149   
     3. B(O   3,C   1)                1.2147  0.009182 -0.0046    1.2102   
     4. B(H   4,C   0)                1.0983  0.007133 -0.0108    1.0875   
     5. B(H   5,C   0)                1.1037  0.006872 -0.0106    1.0931   
     6. B(H   6,C   0)                1.1039  0.006875 -0.0106    1.0933   
     7. B(H   7,C   2)                1.1038  0.006867 -0.0106    1.0932   
     8. B(H   8,C   2)                1.1036  0.006888 -0.0106    1.0930   
     9. B(H   9,C   2)                1.0983  0.007143 -0.0108    1.0875   
    10. A(H   5,C   0,H   6)          106.69 -0.000226    0.03    106.73   
    11. A(H   4,C   0,H   6)          109.69  0.000079   -0.01    109.68   
    12. A(C   1,C   0,H   4)          109.86 -0.000458    0.09    109.95   
    13. A(C   1,C   0,H   5)          110.43  0.000291   -0.05    110.38   
    14. A(C   1,C   0,H   6)          110.45  0.000275   -0.05    110.40   
    15. A(H   4,C   0,H   5)          109.66  0.000051   -0.00    109.66   
    16. A(C   2,C   1,O   3)          121.77  0.000370   -0.05    121.72   
    17. A(C   0,C   1,O   3)          121.76  0.000299   -0.04    121.72   
    18. A(C   0,C   1,C   2)          116.47 -0.000669    0.10    116.56   
    19. A(H   7,C   2,H   9)          109.70  0.000069   -0.01    109.69   
    20. A(C   1,C   2,H   9)          109.87 -0.000444    0.08    109.96   
    21. A(H   7,C   2,H   8)          106.66 -0.000225    0.04    106.69   
    22. A(C   1,C   2,H   8)          110.41  0.000246   -0.04    110.36   
    23. A(H   8,C   2,H   9)          109.72  0.000073   -0.01    109.72   
    24. A(C   1,C   2,H   7)          110.43  0.000292   -0.05    110.37   
    25. D(O   3,C   1,C   0,H   5)    121.18 -0.000071    0.16    121.34   
    26. D(O   3,C   1,C   0,H   4)      0.09 -0.000023    0.14      0.24   
    27. D(C   2,C   1,C   0,H   4)   -179.80  0.000029   -0.10   -179.90   
    28. D(O   3,C   1,C   0,H   6)   -121.04 -0.000000    0.14   -120.91   
    29. D(C   2,C   1,C   0,H   6)     59.07  0.000052   -0.11     58.96   
    30. D(C   2,C   1,C   0,H   5)    -58.71 -0.000019   -0.09    -58.80   
    31. D(H   7,C   2,C   1,C   0)     58.72 -0.000005    0.12     58.85   
    32. D(H   9,C   2,C   1,O   3)     -0.03  0.000033   -0.12     -0.15   
    33. D(H   9,C   2,C   1,C   0)    179.86 -0.000020    0.13    179.99   
    34. D(H   8,C   2,C   1,O   3)    121.13 -0.000006   -0.11    121.02   
    35. D(H   8,C   2,C   1,C   0)    -58.98 -0.000059    0.14    -58.84   
    36. D(H   7,C   2,C   1,O   3)   -121.17  0.000048   -0.12   -121.29   
    ----------------------------------------------------------------------------

         *************************************************************
         *                GEOMETRY OPTIMIZATION CYCLE   2            *
         *************************************************************
---------------------------------
CARTESIAN COORDINATES (ANGSTROEM)
---------------------------------
  C      0.098496   -1.359683    0.709015
  C      0.099819   -0.258278   -0.330877
  C      1.326979   -0.161816   -1.213945
  O     -0.830384    0.506810   -0.448525
  H     -0.827986   -1.331705    1.277870
  H      0.206242   -2.336051    0.229478
  H      0.949597   -1.245858    1.385676
  H      1.476750   -1.096447   -1.760852
  H      2.221870   -0.007021   -0.605845
  H      1.214556    0.660140   -1.917135

----------------------------
CARTESIAN COORDINATES (A.U.)
----------------------------
  NO LB      ZA    FRAG     MASS         X           Y           Z
   0 C     6.0000    0    12.011    0.186131   -2.569429    1.339844
   1 C     6.0000    0    12.011    0.188631   -0.488076   -0.625266
   2 C     6.0000    0    12.011    2.507627   -0.305788   -2.294023
   3 O     8.0000    0    15.999   -1.569198    0.957732   -0.847590
   4 H     1.0000    0     1.008   -1.564667   -2.516558    2.414824
   5 H     1.0000    0     1.008    0.389741   -4.414497    0.433650
   6 H     1.0000    0     1.008    1.794479   -2.354331    2.618547
   7 H     1.0000    0     1.008    2.790653   -2.071984   -3.327529
   8 H     1.0000    0     1.008    4.198725   -0.013267   -1.144881
   9 H     1.0000    0     1.008    2.295178    1.247483   -3.622859

--------------------------------
INTERNAL COORDINATES (ANGSTROEM)
--------------------------------
 C      0   0   0     0.000000000000     0.00000000     0.00000000
 C      1   0   0     1.514750468020     0.00000000     0.00000000
 C      2   1   0     1.514937256144   116.56279563     0.00000000
 O      2   1   3     1.210156642137   121.72014087   180.13629732
 H      1   2   3     1.087542063388   109.94559293   180.10138271
 H      1   2   3     1.093096191783   110.37830894   301.20458999
 H      1   2   3     1.093251645320   110.39717603    58.95794809
 H      3   2   1     1.093194598232   110.37472428    58.84668675
 H      3   2   1     1.092966979989   110.36140375   301.15670451
 H      3   2   1     1.087532030382   109.95554197   179.98742257

---------------------------
INTERNAL COORDINATES (A.U.)
---------------------------
 C      0   0   0     0.000000000000     0.00000000     0.00000000
 C      1   0   0     2.862463545787     0.00000000     0.00000000
 C      2   1   0     2.862816524186   116.56279563     0.00000000
 O      2   1   3     2.286864632784   121.72014087   180.13629732
 H      1   2   3     2.055156658922   109.94559293   180.10138271
 H      1   2   3     2.065652440503   110.37830894   301.20458999
 H      1   2   3     2.065946205114   110.39717603    58.95794809
 H      3   2   1     2.065838401740   110.37472428    58.84668675
 H      3   2   1     2.065408265597   110.36140375   301.15670451
 H      3   2   1     2.055137699290   109.95554197   179.98742257



           ************************************************************
           *        Program running with 16 parallel MPI-processes    *
           *              working on a common directory               *
           ************************************************************


           ************************************************************
           *        Program running with 16 parallel MPI-processes    *
           *              working on a common directory               *
           ************************************************************

Diagonalization of the overlap matrix:
Smallest eigenvalue                        ... 7.050e-04
Time for diagonalization                   ...    0.010 sec
Threshold for overlap eigenvalues          ... 1.000e-08
Number of eigenvalues below threshold      ... 0
Time for construction of square roots      ...    0.047 sec
Total time needed                          ...    0.058 sec

-------------------
DFT GRID GENERATION
-------------------

General Integration Accuracy     IntAcc      ...  4.340
Radial Grid Type                 RadialGrid  ... Gauss-Chebyshev
Angular Grid (max. acc.)         AngularGrid ... Lebedev-110
Angular grid pruning method      GridPruning ... 3 (G Style)
Weight generation scheme         WeightScheme... Becke
Basis function cutoff            BFCut       ...    1.0000e-11
Integration weight cutoff        WCut        ...    1.0000e-14
Grids for H and He will be reduced by one unit

# of grid points (after initial pruning)     ...  11448 (   0.0 sec)
# of grid points (after weights+screening)   ...  10886 (   0.0 sec)
nearest neighbour list constructed           ...    0.0 sec
Grid point re-assignment to atoms done       ...    0.0 sec
Grid point division into batches done        ...    0.0 sec
Reduced shell lists constructed in    0.0 sec

Total number of grid points                  ...    10886
Total number of batches                      ...      175
Average number of points per batch           ...       62
Average number of grid points per atom       ...     1089
Average number of shells per batch           ...    64.33 (84.65%)
Average number of basis functions per batch  ...   172.00 (84.31%)
Average number of large shells per batch     ...    55.75 (86.66%)
Average number of large basis fcns per batch ...   146.08 (84.93%)
Maximum spatial batch extension              ...   2.27,  2.10,  1.98 au
Average spatial batch extension              ...   0.09,  0.09,  0.09 au

Time for grid setup =    0.019 sec

--------------
SCF ITERATIONS
--------------
ITER       Energy         Delta-E        Max-DP      RMS-DP      [F,P]     Damp
               ***  Starting incremental Fock matrix formation  ***
                      *** Initiating the SOSCF procedure ***
                      *** Re-Reading the Fockian *** 
                      *** Removing any level shift *** 
ITER      Energy       Delta-E        Grad      Rot      Max-DP    RMS-DP
  0   -193.11534934 -193.1153493388  0.001867  0.001867  0.002100  0.000063
               *** Restarting incremental Fock matrix formation ***
  1   -193.11545030  -0.0001009655  0.000659  0.001068  0.002168  0.000040
  2   -193.11544582   0.0000044826  0.000923  0.001176  0.000555  0.000020
  3   -193.11546067  -0.0000148479  0.000417  0.000871  0.001400  0.000022
  4   -193.11545894   0.0000017252  0.000516  0.000491  0.000911  0.000014
  5   -193.11546179  -0.0000028430  0.000005  0.000006  0.000021  0.000000
  6   -193.11546179  -0.0000000000  0.000005  0.000005  0.000014  0.000000
                  ***Gradient check signals convergence***
              ***Rediagonalizing the Fockian in SOSCF/NRSCF***

               *****************************************************
               *                     SUCCESS                       *
               *           SCF CONVERGED AFTER   7 CYCLES          *
               *****************************************************

Setting up the final grid:

General Integration Accuracy     IntAcc      ...  4.670
Radial Grid Type                 RadialGrid  ... Gauss-Chebyshev
Angular Grid (max. acc.)         AngularGrid ... Lebedev-302
Angular grid pruning method      GridPruning ... 3 (G Style)
Weight generation scheme         WeightScheme... Becke
Basis function cutoff            BFCut       ...    1.0000e-11
Integration weight cutoff        WCut        ...    1.0000e-14
Grids for H and He will be reduced by one unit

# of grid points (after initial pruning)     ...  45212 (   0.0 sec)
# of grid points (after weights+screening)   ...  42683 (   0.0 sec)
nearest neighbour list constructed           ...    0.0 sec
Grid point re-assignment to atoms done       ...    0.0 sec
Grid point division into batches done        ...    0.1 sec
Reduced shell lists constructed in    0.1 sec

Total number of grid points                  ...    42683
Total number of batches                      ...      673
Average number of points per batch           ...       63
Average number of grid points per atom       ...     4268
Average number of shells per batch           ...    66.48 (87.47%)
Average number of basis functions per batch  ...   176.75 (86.64%)
Average number of large shells per batch     ...    57.23 (86.09%)
Average number of large basis fcns per batch ...   148.86 (84.22%)
Maximum spatial batch extension              ...   2.11,  2.75,  2.95 au
Average spatial batch extension              ...   0.06,  0.06,  0.06 au

Final grid set up in    0.2 sec
Final integration                            ... done (   0.2 sec)
Change in XC energy                          ...     0.000048949
Integrated number of electrons               ...    31.999913852
Previous integrated no of electrons          ...    32.000366401
Total Energy       :         -193.11541284 Eh           -5254.93754 eV
  Last Energy change         ...    2.4346e-10  Tolerance :   1.0000e-08
  Last MAX-Density change    ...    2.5109e-06  Tolerance :   1.0000e-07
             **** THE GBW FILE WAS UPDATED (acetone_B3LYP_cc-pVTZ_OPT.gbw) ****
             **** DENSITY FILE WAS UPDATED (acetone_B3LYP_cc-pVTZ_OPT.scfp) ****
             **** ENERGY FILE WAS UPDATED (acetone_B3LYP_cc-pVTZ_OPT.en.tmp) ****
             **** THE GBW FILE WAS UPDATED (acetone_B3LYP_cc-pVTZ_OPT.gbw) ****
             **** DENSITY FILE WAS UPDATED (acetone_B3LYP_cc-pVTZ_OPT.scfp) ****
Total SCF time: 0 days 0 hours 0 min 5 sec 

-------------------------   --------------------
FINAL SINGLE POINT ENERGY      -193.115412838028
-------------------------   --------------------



           ************************************************************
           *        Program running with 16 parallel MPI-processes    *
           *              working on a common directory               *
           ************************************************************
------------------------------------------------------------------------------
                         ORCA SCF GRADIENT CALCULATION
------------------------------------------------------------------------------

Gradient of the Kohn-Sham DFT energy:
Kohn-Sham wavefunction type      ... RKS
Hartree-Fock exchange scaling    ...    0.200
Number of operators              ...    1
Number of atoms                  ...   10
Basis set dimensions             ...  204
Integral neglect threshold       ... 2.5e-11
Integral primitive cutoff        ... 2.5e-12

Nuclear repulsion gradient       ... done
One Electron Gradient            ... done
Pre-screening matrix             ... done
Starting the two electron gradient:
Two electron gradient done
Exchange-correlation gradient    ... done

------------------
CARTESIAN GRADIENT
------------------

   1   C   :    0.000156973    0.000162575   -0.000042076
   2   C   :    0.000285736   -0.000590006   -0.000204578
   3   C   :   -0.000027436   -0.000027167    0.000199315
   4   O   :   -0.000838672    0.000757745   -0.000035563
   5   H   :   -0.000241811    0.000049170    0.000099537
   6   H   :    0.000074160   -0.000264560   -0.000000274
   7   H   :    0.000217926   -0.000126473    0.000221373
   8   H   :    0.000156507   -0.000188839   -0.000114609
   9   H   :    0.000303534    0.000006963    0.000025682
  10   H   :   -0.000086915    0.000220593   -0.000148806

Difference to translation invariance:
           :    0.0000000000   -0.0000000000    0.0000000000

Norm of the cartesian gradient     ...    0.0015322360
RMS gradient                       ...    0.0002797467
MAX gradient                       ...    0.0008386715

-------
TIMINGS
-------

Total SCF gradient time            ...        2.492 sec

One electron gradient       ....       0.012 sec  (  0.5%)
Prescreening matrices       ....       0.037 sec  (  1.5%)
Two electron gradient       ....       2.065 sec  ( 82.9%)
XC gradient                 ....       0.218 sec  (  8.7%)
------------------------------------------------------------------------------
                         ORCA GEOMETRY RELAXATION STEP
------------------------------------------------------------------------------

Reading the OPT-File                    .... done
Getting information on internals        .... done
Copying old internal coords+grads       .... done
Making the new internal coordinates     .... (new redundants).... done
Validating the new internal coordinates .... (new redundants).... done
Calculating the B-matrix                .... done
Calculating the G,G- and P matrices     .... done
Transforming gradient to internals      .... done
Projecting the internal gradient        .... done
Number of atoms                         ....  10
Number of internal coordinates          ....  36
Current Energy                          ....  -193.115412838 Eh
Current gradient norm                   ....     0.001532236 Eh/bohr
Maximum allowed component of the step   ....  0.300
Current trust radius                    ....  0.300
Updating the Hessian (BFGS)             .... done
Forming the augmented Hessian           .... done
Diagonalizing the augmented Hessian     .... done
Last element of RFO vector              ....  0.999910796
Lowest eigenvalues of augmented Hessian:
 -0.000005809  0.011240365  0.011256393  0.011276444  0.133112315
Length of the computed step             ....  0.013357815
The final length of the internal step   ....  0.013357815
Converting the step to cartesian space:
 Initial RMS(Int)=    0.0022263026
Transforming coordinates:
 Iter   0:  RMS(Cart)=    0.0020030509 RMS(Int)=    0.0022267462
 Iter   1:  RMS(Cart)=    0.0000042725 RMS(Int)=    0.0000026707
 Iter   2:  RMS(Cart)=    0.0000000064 RMS(Int)=    0.0000000061
done
Storing new coordinates                 .... done

                                .--------------------.
          ----------------------|Geometry convergence|-------------------------
          Item                value                   Tolerance       Converged
          ---------------------------------------------------------------------
          Energy change      -0.0005185624            0.0000050000      NO
          RMS gradient        0.0002435628            0.0001000000      NO
          MAX gradient        0.0011271935            0.0003000000      NO
          RMS step            0.0022263026            0.0020000000      NO
          MAX step            0.0045742482            0.0040000000      NO
          ........................................................
          Max(Bonds)      0.0006      Max(Angles)    0.05
          Max(Dihed)        0.26      Max(Improp)    0.00
          ---------------------------------------------------------------------

The optimization has not yet converged - more geometry cycles are needed


    ---------------------------------------------------------------------------
                         Redundant Internal Coordinates
                            (Angstroem and degrees)

        Definition                    Value    dE/dq     Step     New-Value
    ----------------------------------------------------------------------------
     1. B(C   1,C   0)                1.5148  0.000314 -0.0005    1.5143   
     2. B(C   2,C   1)                1.5149  0.000311 -0.0005    1.5145   
     3. B(O   3,C   1)                1.2102  0.001127 -0.0006    1.2096   
     4. B(H   4,C   0)                1.0875  0.000263 -0.0005    1.0871   
     5. B(H   5,C   0)                1.0931  0.000245 -0.0004    1.0927   
     6. B(H   6,C   0)                1.0933  0.000287 -0.0005    1.0927   
     7. B(H   7,C   2)                1.0932  0.000242 -0.0004    1.0928   
     8. B(H   8,C   2)                1.0930  0.000268 -0.0005    1.0925   
     9. B(H   9,C   2)                1.0875  0.000269 -0.0005    1.0871   
    10. A(H   5,C   0,H   6)          106.73 -0.000167    0.03    106.76   
    11. A(H   4,C   0,H   6)          109.68 -0.000026    0.00    109.68   
    12. A(C   1,C   0,H   4)          109.95 -0.000157    0.03    109.98   
    13. A(C   1,C   0,H   5)          110.38  0.000129   -0.02    110.35   
    14. A(C   1,C   0,H   6)          110.40  0.000235   -0.05    110.35   
    15. A(H   4,C   0,H   5)          109.66 -0.000014    0.01    109.67   
    16. A(C   2,C   1,O   3)          121.72  0.000030   -0.00    121.71   
    17. A(C   0,C   1,O   3)          121.72 -0.000003   -0.00    121.72   
    18. A(C   0,C   1,C   2)          116.56 -0.000028    0.00    116.57   
    19. A(H   7,C   2,H   9)          109.69  0.000001    0.00    109.69   
    20. A(C   1,C   2,H   9)          109.96 -0.000141    0.03    109.98   
    21. A(H   7,C   2,H   8)          106.69 -0.000162    0.03    106.73   
    22. A(C   1,C   2,H   8)          110.36  0.000212   -0.04    110.32   
    23. A(H   8,C   2,H   9)          109.72 -0.000037    0.01    109.72   
    24. A(C   1,C   2,H   7)          110.37  0.000127   -0.02    110.35   
    25. D(O   3,C   1,C   0,H   5)    121.34  0.000013   -0.16    121.18   
    26. D(O   3,C   1,C   0,H   4)      0.24  0.000050   -0.18      0.06   
    27. D(C   2,C   1,C   0,H   4)   -179.90 -0.000030    0.25   -179.65   
    28. D(O   3,C   1,C   0,H   6)   -120.91  0.000032   -0.17   -121.07   
    29. D(C   2,C   1,C   0,H   6)     58.96 -0.000048    0.26     59.21   
    30. D(C   2,C   1,C   0,H   5)    -58.80 -0.000066    0.26    -58.53   
    31. D(H   7,C   2,C   1,C   0)     58.85  0.000046   -0.21     58.63   
    32. D(H   9,C   2,C   1,O   3)     -0.15 -0.000042    0.21      0.06   
    33. D(H   9,C   2,C   1,C   0)    179.99  0.000037   -0.21    179.77   
    34. D(H   8,C   2,C   1,O   3)    121.02 -0.000043    0.21    121.23   
    35. D(H   8,C   2,C   1,C   0)    -58.84  0.000036   -0.21    -59.06   
    36. D(H   7,C   2,C   1,O   3)   -121.29 -0.000033    0.21   -121.08   
    ----------------------------------------------------------------------------

         *************************************************************
         *                GEOMETRY OPTIMIZATION CYCLE   3            *
         *************************************************************
---------------------------------
CARTESIAN COORDINATES (ANGSTROEM)
---------------------------------
  C      0.098684   -1.359368    0.708862
  C      0.101279   -0.256554   -0.328855
  C      1.326796   -0.161898   -1.213611
  O     -0.829811    0.506168   -0.448617
  H     -0.828076   -1.333015    1.276471
  H      0.207583   -2.334297    0.227652
  H      0.948545   -1.245711    1.386296
  H      1.474839   -1.097132   -1.759098
  H      2.221851   -0.006862   -0.606662
  H      1.214250    0.658759   -1.917578

----------------------------
CARTESIAN COORDINATES (A.U.)
----------------------------
  NO LB      ZA    FRAG     MASS         X           Y           Z
   0 C     6.0000    0    12.011    0.186485   -2.568834    1.339556
   1 C     6.0000    0    12.011    0.191390   -0.484817   -0.621447
   2 C     6.0000    0    12.011    2.507281   -0.305942   -2.293393
   3 O     8.0000    0    15.999   -1.568116    0.956518   -0.847763
   4 H     1.0000    0     1.008   -1.564836   -2.519033    2.412181
   5 H     1.0000    0     1.008    0.392275   -4.411183    0.430199
   6 H     1.0000    0     1.008    1.792490   -2.354052    2.619721
   7 H     1.0000    0     1.008    2.787042   -2.073278   -3.324213
   8 H     1.0000    0     1.008    4.198689   -0.012967   -1.146425
   9 H     1.0000    0     1.008    2.294600    1.244874   -3.623698

--------------------------------
INTERNAL COORDINATES (ANGSTROEM)
--------------------------------
 C      0   0   0     0.000000000000     0.00000000     0.00000000
 C      1   0   0     1.514286931467     0.00000000     0.00000000
 C      2   1   0     1.514477701144   116.56720323     0.00000000
 O      2   1   3     1.209552266903   121.71997974   179.71152230
 H      1   2   3     1.087086444611   109.97557127   180.34936640
 H      1   2   3     1.092661620395   110.35470412   301.46666438
 H      1   2   3     1.092748575328   110.34982596    59.21500595
 H      3   2   1     1.092764864647   110.35017034    58.63235880
 H      3   2   1     1.092495810841   110.32037788   300.94369121
 H      3   2   1     1.087066682802   109.98193510   179.77493064

---------------------------
INTERNAL COORDINATES (A.U.)
---------------------------
[...]
  80   0.0000       1.713797        46.6348 
  81   0.0000       1.806918        49.1687 
  82   0.0000       1.833212        49.8842 
  83   0.0000       1.880432        51.1692 
  84   0.0000       2.103837        57.2483 
  85   0.0000       2.103873        57.2493 
  86   0.0000       2.112194        57.4757 
  87   0.0000       2.157574        58.7106 
  88   0.0000       2.203534        59.9612 
  89   0.0000       2.288359        62.2694 
  90   0.0000       2.353812        64.0505 
  91   0.0000       2.363697        64.3195 
  92   0.0000       2.428375        66.0794 
  93   0.0000       2.440250        66.4026 
  94   0.0000       2.463261        67.0287 
  95   0.0000       2.564020        69.7705 
  96   0.0000       2.568177        69.8836 
  97   0.0000       2.573584        70.0308 
  98   0.0000       2.590952        70.5034 
  99   0.0000       2.733089        74.3711 
 100   0.0000       2.735910        74.4479 
 101   0.0000       2.769534        75.3629 
 102   0.0000       2.775770        75.5325 
 103   0.0000       2.788807        75.8873 
 104   0.0000       2.792911        75.9990 
 105   0.0000       2.833717        77.1094 
 106   0.0000       2.851034        77.5806 
 107   0.0000       2.860930        77.8499 
 108   0.0000       2.902261        78.9745 
 109   0.0000       2.943602        80.0995 
 110   0.0000       2.974026        80.9274 
 111   0.0000       2.976955        81.0071 
 112   0.0000       2.978320        81.0442 
 113   0.0000       3.022645        82.2503 
 114   0.0000       3.026585        82.3576 
 115   0.0000       3.078999        83.7838 
 116   0.0000       3.085968        83.9735 
 117   0.0000       3.101395        84.3932 
 118   0.0000       3.138248        85.3961 
 119   0.0000       3.205021        87.2131 
 120   0.0000       3.234622        88.0185 
 121   0.0000       3.277528        89.1861 
 122   0.0000       3.302410        89.8631 
 123   0.0000       3.304120        89.9097 
 124   0.0000       3.306515        89.9749 
 125   0.0000       3.392843        92.3240 
 126   0.0000       3.394117        92.3586 
 127   0.0000       3.410255        92.7978 
 128   0.0000       3.442835        93.6843 
 129   0.0000       3.455818        94.0376 
 130   0.0000       3.491942        95.0206 
 131   0.0000       3.497091        95.1607 
 132   0.0000       3.500666        95.2580 
 133   0.0000       3.616437        98.4083 
 134   0.0000       3.623356        98.5965 
 135   0.0000       3.681115       100.1682 
 136   0.0000       3.687297       100.3364 
 137   0.0000       3.753064       102.1261 
 138   0.0000       3.762335       102.3783 
 139   0.0000       3.774385       102.7062 
 140   0.0000       3.796935       103.3198 
 141   0.0000       3.807280       103.6014 
 142   0.0000       3.831100       104.2495 
 143   0.0000       3.877237       105.5050 
 144   0.0000       3.894651       105.9788 
 145   0.0000       3.963469       107.8515 
 146   0.0000       3.979050       108.2755 
 147   0.0000       4.011416       109.1562 
 148   0.0000       4.018070       109.3372 
 149   0.0000       4.056007       110.3696 
 150   0.0000       4.066630       110.6586 
 151   0.0000       4.107592       111.7733 
 152   0.0000       4.154862       113.0595 
 153   0.0000       4.176232       113.6411 
 154   0.0000       4.191366       114.0529 
 155   0.0000       4.220715       114.8515 
 156   0.0000       4.272625       116.2640 
 157   0.0000       4.282195       116.5244 
 158   0.0000       4.321911       117.6052 
 159   0.0000       4.326878       117.7403 
 160   0.0000       4.364283       118.7582 
 161   0.0000       4.445903       120.9792 
 162   0.0000       4.480950       121.9328 
 163   0.0000       4.589794       124.8946 
 164   0.0000       4.766997       129.7166 
 165   0.0000       4.782271       130.1322 
 166   0.0000       4.801651       130.6596 
 167   0.0000       4.812414       130.9525 
 168   0.0000       4.889990       133.0634 
 169   0.0000       5.015638       136.4824 
 170   0.0000       5.059057       137.6639 
 171   0.0000       5.063485       137.7844 
 172   0.0000       5.090642       138.5234 
 173   0.0000       5.102393       138.8432 
 174   0.0000       5.113448       139.1440 
 175   0.0000       5.122655       139.3945 
 176   0.0000       5.141495       139.9072 
 177   0.0000       5.191446       141.2664 
 178   0.0000       5.214220       141.8861 
 179   0.0000       5.251826       142.9095 
 180   0.0000       5.273247       143.4923 
 181   0.0000       5.276295       143.5753 
 182   0.0000       5.309280       144.4728 
 183   0.0000       5.339769       145.3025 
 184   0.0000       5.399917       146.9392 
 185   0.0000       5.518554       150.1675 
 186   0.0000       5.610308       152.6642 
 187   0.0000       5.715978       155.5397 
 188   0.0000       5.808457       158.0562 
 189   0.0000       5.813684       158.1984 
 190   0.0000       5.850822       159.2090 
 191   0.0000       5.862713       159.5325 
 192   0.0000       6.236624       169.7072 
 193   0.0000       6.269386       170.5987 
 194   0.0000       6.386980       173.7986 
 195   0.0000       6.434169       175.0826 
 196   0.0000       6.659777       181.2217 
 197   0.0000       6.859725       186.6626 
 198   0.0000       7.026656       191.2050 
 199   0.0000       7.031273       191.3307 
 200   0.0000       8.741087       237.8571 
 201   0.0000      12.921676       351.6167 
 202   0.0000      13.334318       362.8452 
 203   0.0000      13.405679       364.7871 

                    ********************************
                    * MULLIKEN POPULATION ANALYSIS *
                    ********************************

-----------------------
MULLIKEN ATOMIC CHARGES
-----------------------
   0 C :   -0.292994
   1 C :    0.219155
   2 C :   -0.295218
   3 O :   -0.259013
   4 H :    0.117581
   5 H :    0.095622
   6 H :    0.099537
   7 H :    0.100338
   8 H :    0.097188
   9 H :    0.117804
Sum of atomic charges:   -0.0000000

--------------------------------
MULLIKEN REDUCED ORBITAL CHARGES
--------------------------------
  0 C s       :     3.271568  s :     3.271568
      pz      :     0.959037  p :     2.972225
      px      :     1.051074
      py      :     0.962114
      dz2     :     0.005311  d :     0.045527
      dxz     :     0.014210
      dyz     :     0.011466
      dx2y2   :     0.010883
      dxy     :     0.003657
      f0      :     0.000086  f :     0.003674
      f+1     :     0.000148
      f-1     :     0.000755
      f+2     :     0.001689
      f-2     :     0.000499
      f+3     :     0.000165
      f-3     :     0.000332
  1 C s       :     3.181656  s :     3.181656
      pz      :     0.807957  p :     2.393697
      px      :     0.802845
      py      :     0.782895
      dz2     :     0.024999  d :     0.189360
      dxz     :     0.040452
      dyz     :     0.030198
      dx2y2   :     0.057763
      dxy     :     0.035948
      f0      :     0.001814  f :     0.016132
      f+1     :     0.001717
      f-1     :     0.001402
      f+2     :     0.001163
      f-2     :     0.003604
      f+3     :     0.003719
      f-3     :     0.002713
  2 C s       :     3.266506  s :     3.266506
      pz      :     0.977904  p :     2.979012
      px      :     0.964423
      py      :     1.036686
      dz2     :     0.004561  d :     0.046024
      dxz     :     0.013161
      dyz     :     0.013128
      dx2y2   :     0.010699
      dxy     :     0.004474
      f0      :     0.000145  f :     0.003676
      f+1     :     0.000605
      f-1     :     0.000109
      f+2     :     0.001697
      f-2     :     0.000484
      f+3     :     0.000335
      f-3     :     0.000301
  3 O s       :     3.725109  s :     3.725109
      pz      :     1.582261  p :     4.497902
      px      :     1.469346
      py      :     1.446295
      dz2     :     0.003484  d :     0.033721
      dxz     :     0.006216
      dyz     :     0.003973
      dx2y2   :     0.010090
      dxy     :     0.009957
      f0      :     0.000274  f :     0.002282
      f+1     :     0.000237
      f-1     :     0.000168
      f+2     :     0.000049
      f-2     :     0.000383
      f+3     :     0.000615
      f-3     :     0.000556
  4 H s       :     0.850590  s :     0.850590
      pz      :     0.009776  p :     0.029243
      px      :     0.009625
      py      :     0.009842
      dz2     :     0.000534  d :     0.002585
      dxz     :     0.000597
      dyz     :     0.000344
      dx2y2   :     0.000419
      dxy     :     0.000691
  5 H s       :     0.870265  s :     0.870265
      pz      :     0.010465  p :     0.031536
      px      :     0.010608
      py      :     0.010463
      dz2     :     0.000480  d :     0.002577
      dxz     :     0.000206
      dyz     :     0.000675
      dx2y2   :     0.000573
      dxy     :     0.000643
  6 H s       :     0.865937  s :     0.865937
      pz      :     0.010088  p :     0.031938
      px      :     0.009991
      py      :     0.011859
      dz2     :     0.000645  d :     0.002588
      dxz     :     0.000492
      dyz     :     0.000482
      dx2y2   :     0.000431
      dxy     :     0.000537
  7 H s       :     0.865321  s :     0.865321
      pz      :     0.010822  p :     0.031802
      px      :     0.011894
      py      :     0.009086
      dz2     :     0.000471  d :     0.002539
      dxz     :     0.000406
      dyz     :     0.000543
      dx2y2   :     0.000454
      dxy     :     0.000665
  8 H s       :     0.868811  s :     0.868811
      pz      :     0.009942  p :     0.031423
      px      :     0.010946
      py      :     0.010535
      dz2     :     0.000640  d :     0.002578
      dxz     :     0.000509
      dyz     :     0.000310
      dx2y2   :     0.000596
      dxy     :     0.000523
  9 H s       :     0.850841  s :     0.850841
      pz      :     0.009543  p :     0.028727
      px      :     0.009373
      py      :     0.009811
      dz2     :     0.000664  d :     0.002628
      dxz     :     0.000514
      dyz     :     0.000484
      dx2y2   :     0.000424
      dxy     :     0.000543


                     *******************************
                     * LOEWDIN POPULATION ANALYSIS *
                     *******************************

----------------------
LOEWDIN ATOMIC CHARGES
----------------------
   0 C :    0.100965
   1 C :   -0.298147
   2 C :    0.100616
   3 O :    0.202033
   4 H :   -0.019195
   5 H :   -0.017009
   6 H :   -0.016701
   7 H :   -0.016563
   8 H :   -0.016701
   9 H :   -0.019298

-------------------------------
LOEWDIN REDUCED ORBITAL CHARGES
-------------------------------
  0 C s       :     2.672447  s :     2.672447
      pz      :     0.968060  p :     2.934698
      px      :     0.996703
      py      :     0.969935
      dz2     :     0.024051  d :     0.263180
      dxz     :     0.077658
      dyz     :     0.071818
      dx2y2   :     0.071584
      dxy     :     0.018069
      f0      :     0.004682  f :     0.028711
      f+1     :     0.002220
      f-1     :     0.004894
      f+2     :     0.006101
      f-2     :     0.003061
      f+3     :     0.003690
      f-3     :     0.004063
  1 C s       :     2.763999  s :     2.763999
      pz      :     0.846073  p :     2.651940
      px      :     0.935345
      py      :     0.870522
      dz2     :     0.104941  d :     0.771858
      dxz     :     0.161061
      dyz     :     0.126735
      dx2y2   :     0.211898
      dxy     :     0.167223
      f0      :     0.013596  f :     0.110349
      f+1     :     0.013667
      f-1     :     0.007856
      f+2     :     0.004628
      f-2     :     0.025368
      f+3     :     0.024465
      f-3     :     0.020768
  2 C s       :     2.672391  s :     2.672391
      pz      :     0.973861  p :     2.935245
      px      :     0.967542
      py      :     0.993842
      dz2     :     0.019674  d :     0.263043
      dxz     :     0.077929
      dyz     :     0.071663
      dx2y2   :     0.070798
      dxy     :     0.022980
      f0      :     0.004679  f :     0.028705
      f+1     :     0.004586
      f-1     :     0.001970
      f+2     :     0.006093
      f-2     :     0.002664
      f+3     :     0.004212
      f-3     :     0.004501
  3 O s       :     3.369298  s :     3.369298
      pz      :     1.460340  p :     4.353787
      px      :     1.474700
      py      :     1.418747
      dz2     :     0.008313  d :     0.069253
      dxz     :     0.011095
      dyz     :     0.008431
      dx2y2   :     0.017730
      dxy     :     0.023684
      f0      :     0.000660  f :     0.005630
      f+1     :     0.000613
      f-1     :     0.000390
      f+2     :     0.000066
      f-2     :     0.001049
      f+3     :     0.001401
      f-3     :     0.001450
  4 H s       :     0.835308  s :     0.835308
      pz      :     0.049842  p :     0.154058
      px      :     0.065390
      py      :     0.038826
      dz2     :     0.005362  d :     0.029829
      dxz     :     0.008647
      dyz     :     0.002930
      dx2y2   :     0.006183
      dxy     :     0.006707
  5 H s       :     0.829677  s :     0.829677
      pz      :     0.046920  p :     0.158027
      px      :     0.043472
      py      :     0.067635
      dz2     :     0.004526  d :     0.029305
      dxz     :     0.002366
      dyz     :     0.008157
      dx2y2   :     0.006838
      dxy     :     0.007418
  6 H s       :     0.829252  s :     0.829252
      pz      :     0.053588  p :     0.158168
      px      :     0.060894
      py      :     0.043686
      dz2     :     0.006418  d :     0.029281
      dxz     :     0.007787
      dyz     :     0.004269
      dx2y2   :     0.005481
      dxy     :     0.005326
  7 H s       :     0.829195  s :     0.829195
      pz      :     0.049441  p :     0.158053
      px      :     0.044521
      py      :     0.064091
      dz2     :     0.005034  d :     0.029315
      dxz     :     0.003050
      dyz     :     0.008252
      dx2y2   :     0.006118
      dxy     :     0.006861
  8 H s       :     0.829303  s :     0.829303
      pz      :     0.050217  p :     0.158077
      px      :     0.064427
      py      :     0.043432
      dz2     :     0.005654  d :     0.029322
      dxz     :     0.007627
      dyz     :     0.003617
      dx2y2   :     0.006258
      dxy     :     0.006166
  9 H s       :     0.835330  s :     0.835330
      pz      :     0.055268  p :     0.154165
      px      :     0.038501
      py      :     0.060396
      dz2     :     0.006843  d :     0.029803
      dxz     :     0.004421
      dyz     :     0.008003
      dx2y2   :     0.005364
      dxy     :     0.005172


                      *****************************
                      * MAYER POPULATION ANALYSIS *
                      *****************************

  NA   - Mulliken gross atomic population
  ZA   - Total nuclear charge
  QA   - Mulliken gross atomic charge
  VA   - Mayer's total valence
  BVA  - Mayer's bonded valence
  FA   - Mayer's free valence

  ATOM       NA         ZA         QA         VA         BVA        FA
  0 C      6.2930     6.0000    -0.2930     3.7517     3.7517    -0.0000
  1 C      5.7808     6.0000     0.2192     4.1102     4.1102    -0.0000
  2 C      6.2952     6.0000    -0.2952     3.7539     3.7539    -0.0000
  3 O      8.2590     8.0000    -0.2590     2.2829     2.2829    -0.0000
  4 H      0.8824     1.0000     0.1176     1.0116     1.0116    -0.0000
  5 H      0.9044     1.0000     0.0956     0.9909     0.9909     0.0000
  6 H      0.9005     1.0000     0.0995     0.9910     0.9910    -0.0000
  7 H      0.8997     1.0000     0.1003     0.9925     0.9925    -0.0000
  8 H      0.9028     1.0000     0.0972     0.9911     0.9911    -0.0000
  9 H      0.8822     1.0000     0.1178     1.0075     1.0075    -0.0000

  Mayer bond orders larger than 0.100000
B(  0-C ,  1-C ) :   0.9226 B(  0-C ,  4-H ) :   0.9699 B(  0-C ,  5-H ) :   0.9506 
B(  0-C ,  6-H ) :   0.9526 B(  1-C ,  2-C ) :   0.9282 B(  1-C ,  3-O ) :   2.2176 
B(  2-C ,  7-H ) :   0.9526 B(  2-C ,  8-H ) :   0.9502 B(  2-C ,  9-H ) :   0.9677 


-------
TIMINGS
-------

Total SCF time: 0 days 0 hours 0 min 4 sec 

Total time                  ....       4.660 sec
Sum of individual times     ....       4.276 sec  ( 91.8%)

Fock matrix formation       ....       3.714 sec  ( 79.7%)
  XC integration            ....       0.316 sec  (  8.5% of F)
    Basis function eval.    ....       0.021 sec  (  6.7% of XC)
    Density eval.           ....       0.046 sec  ( 14.4% of XC)
    XC-Functional eval.     ....       0.003 sec  (  0.9% of XC)
    XC-Potential eval.      ....       0.040 sec  ( 12.6% of XC)
Diagonalization             ....       0.012 sec  (  0.3%)
Density matrix formation    ....       0.088 sec  (  1.9%)
Population analysis         ....       0.013 sec  (  0.3%)
Initial guess               ....       0.017 sec  (  0.4%)
Orbital Transformation      ....       0.000 sec  (  0.0%)
Orbital Orthonormalization  ....       0.013 sec  (  0.3%)
DIIS solution               ....       0.004 sec  (  0.1%)
SOSCF solution              ....       0.232 sec  (  5.0%)
Grid generation             ....       0.196 sec  (  4.2%)

-------------------------   --------------------
FINAL SINGLE POINT ENERGY      -193.115414946953
-------------------------   --------------------

                                *** OPTIMIZATION RUN DONE ***

                            ***************************************
                            *     ORCA property calculations      *
                            ***************************************

                                    ---------------------
                                    Active property flags
                                    ---------------------
   (+) Dipole Moment


------------------------------------------------------------------------------
                       ORCA ELECTRIC PROPERTIES CALCULATION
------------------------------------------------------------------------------

Dipole Moment Calculation                       ... on
Quadrupole Moment Calculation                   ... off
Polarizability Calculation                      ... off
GBWName                                         ... acetone_B3LYP_cc-pVTZ_OPT.gbw
Electron density file                           ... acetone_B3LYP_cc-pVTZ_OPT.scfp
The origin for moment calculation is the CENTER OF MASS  = ( 0.336282, -0.607499 -0.605440)

-------------
DIPOLE MOMENT
-------------
                                X             Y             Z
Electronic contribution:     -3.01803       2.47993      -0.38337
Nuclear contribution   :      3.89925      -3.20379       0.49610
                        -----------------------------------------
Total Dipole Moment    :      0.88122      -0.72386       0.11273
                        -----------------------------------------
Magnitude (a.u.)       :      1.14596
Magnitude (Debye)      :      2.91281



--------------------
Rotational spectrum 
--------------------
 
Rotational constants in cm-1:     0.339882     0.284003     0.164057 
Rotational constants in MHz : 10189.397776  8514.210668  4918.310725 

 Dipole components along the rotational axes: 
x,y,z [a.u.] :    -0.000416     1.145965     0.000708 
x,y,z [Debye]:    -0.001059     2.912811     0.001799 

 

Timings for individual modules:

Sum of individual times         ...       33.430 sec (=   0.557 min)
GTO integral calculation        ...        2.733 sec (=   0.046 min)   8.2 %
SCF iterations                  ...       22.383 sec (=   0.373 min)  67.0 %
SCF Gradient evaluation         ...        8.006 sec (=   0.133 min)  23.9 %
Geometry relaxation             ...        0.307 sec (=   0.005 min)   0.9 %
                             ****ORCA TERMINATED NORMALLY****
TOTAL RUN TIME: 0 days 0 hours 0 minutes 34 seconds 276 msec
