
                                 *****************
                                 * O   R   C   A *
                                 *****************

           --- An Ab Initio, DFT and Semiempirical electronic structure package ---

                  #######################################################
                  #                        -***-                        #
                  #          Department of theory and spectroscopy      #
                  #               Directorship: Frank Neese             #
                  #        Max Planck Institute fuer Kohlenforschung    #
                  #                Kaiser Wilhelm Platz 1               #
                  #                 D-45470 Muelheim/Ruhr               #
                  #                      Germany                        #
                  #                                                     #
                  #                  All rights reserved                #
                  #                        -***-                        #
                  #######################################################


                         Program Version 4.2.1 -  RELEASE  -


 With contributions from (in alphabetic order):
   Daniel Aravena         : Magnetic Suceptibility
   Michael Atanasov       : Ab Initio Ligand Field Theory (pilot matlab implementation)
   Alexander A. Auer      : GIAO ZORA, VPT2
   Ute Becker             : Parallelization
   Giovanni Bistoni       : ED, misc. LED, open-shell LED, HFLD
   Martin Brehm           : Molecular dynamics
   Dmytro Bykov           : SCF Hessian
   Vijay G. Chilkuri      : MRCI spin determinant printing, contributions to CSF-ICE
   Dipayan Datta          : RHF DLPNO-CCSD density
   Achintya Kumar Dutta   : EOM-CC, STEOM-CC
   Dmitry Ganyushin       : Spin-Orbit,Spin-Spin,Magnetic field MRCI
   Miquel Garcia          : C-PCM Hessian, Gaussian charge scheme
   Yang Guo               : DLPNO-NEVPT2, CIM, IAO-localization
   Andreas Hansen         : Spin unrestricted coupled pair/coupled cluster methods
   Benjamin Helmich-Paris : CASSCF linear response (MC-RPA)
   Lee Huntington         : MR-EOM, pCC
   Robert Izsak           : Overlap fitted RIJCOSX, COSX-SCS-MP3, EOM
   Christian Kollmar      : KDIIS, OOCD, Brueckner-CCSD(T), CCSD density
   Simone Kossmann        : Meta GGA functionals, TD-DFT gradient, OOMP2, MP2 Hessian
   Martin Krupicka        : AUTO-CI
   Lucas Lang             : DCDCAS
   Dagmar Lenk            : GEPOL surface, SMD
   Dimitrios Liakos       : Extrapolation schemes; Compound Job, initial MDCI parallelization
   Dimitrios Manganas     : Further ROCIS development; embedding schemes
   Dimitrios Pantazis     : SARC Basis sets
   Taras Petrenko         : DFT Hessian,TD-DFT gradient, ASA, ECA, R-Raman, ABS, FL, XAS/XES, NRVS
   Peter Pinski           : DLPNO-MP2, DLPNO-MP2 Gradient
   Christoph Reimann      : Effective Core Potentials
   Marius Retegan         : Local ZFS, SOC
   Christoph Riplinger    : Optimizer, TS searches, QM/MM, DLPNO-CCSD(T), (RO)-DLPNO pert. Triples
   Tobias Risthaus        : Range-separated hybrids, TD-DFT gradient, RPA, STAB
   Michael Roemelt        : Original ROCIS implementation
   Masaaki Saitow         : Open-shell DLPNO-CCSD energy and density
   Barbara Sandhoefer     : DKH picture change effects
   Avijit Sen             : IP-ROCIS
   Kantharuban Sivalingam : CASSCF convergence, NEVPT2, FIC-MRCI
   Bernardo de Souza      : ESD, SOC TD-DFT
   Georgi Stoychev        : AutoAux, RI-MP2 NMR
   Willem Van den Heuvel  : Paramagnetic NMR
   Boris Wezisla          : Elementary symmetry handling
   Frank Wennmohs         : Technical directorship


 We gratefully acknowledge several colleagues who have allowed us to
 interface, adapt or use parts of their codes:
   Stefan Grimme, W. Hujo, H. Kruse,             : VdW corrections, initial TS optimization,
                  C. Bannwarth                     DFT functionals, gCP, sTDA/sTD-DF
   Ed Valeev, F. Pavosevic, A. Kumar             : LibInt (2-el integral package), F12 methods
   Garnet Chan, S. Sharma, J. Yang, R. Olivares  : DMRG
   Ulf Ekstrom                                   : XCFun DFT Library
   Mihaly Kallay                                 : mrcc  (arbitrary order and MRCC methods)
   Andreas Klamt, Michael Diedenhofen            : otool_cosmo (COSMO solvation model)
   Jiri Pittner, Ondrej Demel                    : Mk-CCSD
   Frank Weinhold                                : gennbo (NPA and NBO analysis)
   Christopher J. Cramer and Donald G. Truhlar   : smd solvation model
   Lars Goerigk                                  : TD-DFT with DH, B97 family of functionals
   V. Asgeirsson, H. Jonsson                     : NEB implementation
   FAccTs GmbH                                   : IRC, NEB, NEB-TS, Multilevel, MM, QM/MM, CI optimization
   S Lehtola, MJT Oliveira, MAL Marques          : LibXC Library


 Your calculation uses the libint2 library for the computation of 2-el integrals
 For citations please refer to: http://libint.valeyev.net

 Your ORCA version has been built with support for libXC version: 4.2.3
 For citations please refer to: https://tddft.org/programs/libxc/

 This ORCA versions uses:
   CBLAS   interface :  Fast vector & matrix operations
   LAPACKE interface :  Fast linear algebra routines
   SCALAPACK package :  Parallel linear algebra routines




***************************************
The coordinates will be read from file: acetone_B3LYP_cc-pVTZ_OPT.xyz
***************************************


----- Orbital basis set information -----
Your calculation utilizes the basis: aug-cc-pVTZ 
    H, B-Ne : Obtained from the ccRepo (grant-hill.group.shef.ac.uk/ccrepo) Feb. 2017
              R. A. Kendall, T. H. Dunning, Jr., R. J. Harrison, J. Chem. Phys. 96, 6796 (1992)
         He : Obtained from the ccRepo (grant-hill.group.shef.ac.uk/ccrepo) Feb. 2017
              D. E. Woon, T. H. Dunning, Jr., J. Chem. Phys. 100, 2975 (1994)
  Li-Be, Na : Obtained from the ccRepo (grant-hill.group.shef.ac.uk/ccrepo) Feb. 2017
              B. P. Prascher, D. E. Woon, K. A. Peterson, T. H. Dunning, Jr., A. K. Wilson, Theor. Chem. Acc. 128, 69 (2011)
         Mg : Obtained from the Peterson Research Group Website (tyr0.chem.wsu.edu/~kipeters) Feb. 2017
              B. P. Prascher, D. E. Woon, K. A. Peterson, T. H. Dunning, Jr., A. K. Wilson, Theor. Chem. Acc. 128, 69 (2011)
      Al-Ar : Obtained from the ccRepo (grant-hill.group.shef.ac.uk/ccrepo) Feb. 2017
              D. E. Woon, T. H. Dunning, Jr., J. Chem. Phys. 98, 1358 (1993)
      Sc-Zn : Obtained from the ccRepo (grant-hill.group.shef.ac.uk/ccrepo) Feb. 2017
              N. B. Balabanov, K. A. Peterson, J. Chem. Phys. 123, 064107 (2005)
              N. B. Balabanov, K. A. Peterson, J. Chem. Phys. 125, 074110 (2006)
      Ga-Kr : Obtained from the ccRepo (grant-hill.group.shef.ac.uk/ccrepo) Feb. 2017
              A. K. Wilson, D. E. Woon, K. A. Peterson, T. H. Dunning, Jr., J. Chem. Phys. 110, 7667 (1999)
     Ag, Au : Obtained from the Peterson Research Group Website (tyr0.chem.wsu.edu/~kipeters) Feb. 2017
              K. A. Peterson, C. Puzzarini, Theor. Chem. Acc. 114, 283 (2005)

================================================================================
                                        WARNINGS
                       Please study these warnings very carefully!
================================================================================


WARNING: The frozen-core approximation for MP2-gradient calculations is turned on by default.

WARNING: Geometry Optimization
  ===> : Switching off AutoStart
         For restart on a previous wavefunction, please use MOREAD

WARNING: Post HF methods need fully converged wavefunctions
  ===> : Setting SCFConvForced true
         You can overwrite this default with %scf ConvForced false 


INFO   : the flag for use of LIBINT has been found!

================================================================================
                                       INPUT FILE
================================================================================
NAME = acetone_MP2_aug-cc-pVTZ_OPT.inp
|  1> # acetone MP2/aug-cc-pVTZ Optimization
|  2> 
|  3> ! MP2 aug-cc-pVTZ TightSCF Opt PAL16
|  4> %maxcore 1000
|  5> 
|  6> * xyzfile 0 1 acetone_B3LYP_cc-pVTZ_OPT.xyz
|  7> 
|  8> 
|  9>                          ****END OF INPUT****
================================================================================

                       *****************************
                       * Geometry Optimization Run *
                       *****************************

Geometry optimization settings:
Update method            Update   .... BFGS
Choice of coordinates    CoordSys .... Z-matrix Internals
Initial Hessian          InHess   .... Almoef's Model

Convergence Tolerances:
Energy Change            TolE     ....  5.0000e-06 Eh
Max. Gradient            TolMAXG  ....  3.0000e-04 Eh/bohr
RMS Gradient             TolRMSG  ....  1.0000e-04 Eh/bohr
Max. Displacement        TolMAXD  ....  4.0000e-03 bohr
RMS Displacement         TolRMSD  ....  2.0000e-03 bohr
Strict Convergence                ....  False
------------------------------------------------------------------------------
                        ORCA OPTIMIZATION COORDINATE SETUP
------------------------------------------------------------------------------

The optimization will be done in new redundant internal coordinates
Making redundant internal coordinates   ...  (new redundants) done
Evaluating the initial hessian          ...  (Almloef) done
Evaluating the coordinates              ...  done
Calculating the B-matrix                .... done
Calculating the G-matrix                .... done
Diagonalizing the G-matrix              .... done
The first mode is                       ....   12
The number of degrees of freedom        ....   24

    -----------------------------------------------------------------
                    Redundant Internal Coordinates


    -----------------------------------------------------------------
         Definition                    Initial Value    Approx d2E/dq
    -----------------------------------------------------------------
      1. B(C   1,C   0)                  1.5141         0.395973   
      2. B(C   2,C   1)                  1.5143         0.395690   
      3. B(O   3,C   1)                  1.2093         1.086689   
      4. B(H   4,C   0)                  1.0870         0.364112   
      5. B(H   5,C   0)                  1.0925         0.356743   
      6. B(H   6,C   0)                  1.0927         0.356591   
      7. B(H   7,C   2)                  1.0927         0.356606   
      8. B(H   8,C   2)                  1.0924         0.356914   
      9. B(H   9,C   2)                  1.0870         0.364139   
     10. A(H   5,C   0,H   6)          106.7768         0.289966   
     11. A(H   4,C   0,H   6)          109.6815         0.290898   
     12. A(C   1,C   0,H   4)          109.9945         0.328039   
     13. A(C   1,C   0,H   5)          110.3300         0.326936   
     14. A(C   1,C   0,H   6)          110.3309         0.326913   
     15. A(H   4,C   0,H   5)          109.6728         0.290918   
     16. A(C   2,C   1,O   3)          121.7131         0.440019   
     17. A(C   0,C   1,O   3)          121.7238         0.440076   
     18. A(C   0,C   1,C   2)          116.5630         0.370633   
     19. A(H   7,C   2,H   9)          109.6866         0.290904   
     20. A(C   1,C   2,H   9)          109.9983         0.328005   
     21. A(H   7,C   2,H   8)          106.7451         0.289990   
     22. A(C   1,C   2,H   8)          110.3066         0.326923   
     23. A(H   8,C   2,H   9)          109.7254         0.290943   
     24. A(C   1,C   2,H   7)          110.3240         0.326877   
     25. D(O   3,C   1,C   0,H   5)    121.3826         0.011647   
     26. D(O   3,C   1,C   0,H   4)      0.2612         0.011647   
     27. D(C   2,C   1,C   0,H   4)   -179.8067         0.011647   
     28. D(O   3,C   1,C   0,H   6)   -120.8716         0.011647   
     29. D(C   2,C   1,C   0,H   6)     59.0606         0.011647   
     30. D(C   2,C   1,C   0,H   5)    -58.6853         0.011647   
     31. D(H   7,C   2,C   1,C   0)     58.8282         0.011631   
     32. D(H   9,C   2,C   1,O   3)     -0.1023         0.011631   
     33. D(H   9,C   2,C   1,C   0)    179.9655         0.011631   
     34. D(H   8,C   2,C   1,O   3)    121.0720         0.011631   
     35. D(H   8,C   2,C   1,C   0)    -58.8601         0.011631   
     36. D(H   7,C   2,C   1,O   3)   -121.2396         0.011631   
    -----------------------------------------------------------------

Number of atoms                         .... 10
Number of degrees of freedom            .... 36

         *************************************************************
         *                GEOMETRY OPTIMIZATION CYCLE   1            *
         *************************************************************
---------------------------------
CARTESIAN COORDINATES (ANGSTROEM)
---------------------------------
  C      0.098670   -1.359367    0.708672
  C      0.100247   -0.258052   -0.330438
  C      1.326618   -0.162088   -1.213639
  O     -0.829391    0.506411   -0.448233
  H     -0.827492   -1.332764    1.277048
  H      0.207550   -2.334601    0.228331
  H      0.949010   -1.244282    1.385129
  H      1.474909   -1.096652   -1.759984
  H      2.220786   -0.007847   -0.605318
  H      1.215034    0.659333   -1.916708

----------------------------
CARTESIAN COORDINATES (A.U.)
----------------------------
  NO LB      ZA    FRAG     MASS         X           Y           Z
   0 C     6.0000    0    12.011    0.186459   -2.568832    1.339196
   1 C     6.0000    0    12.011    0.189439   -0.487647   -0.624438
   2 C     6.0000    0    12.011    2.506945   -0.306302   -2.293445
   3 O     8.0000    0    15.999   -1.567322    0.956979   -0.847037
   4 H     1.0000    0     1.008   -1.563734   -2.518560    2.413270
   5 H     1.0000    0     1.008    0.392212   -4.411757    0.431483
   6 H     1.0000    0     1.008    1.793369   -2.351351    2.617514
   7 H     1.0000    0     1.008    2.787174   -2.072372   -3.325888
   8 H     1.0000    0     1.008    4.196677   -0.014829   -1.143885
   9 H     1.0000    0     1.008    2.296081    1.245958   -3.622053

--------------------------------
INTERNAL COORDINATES (ANGSTROEM)
--------------------------------
 C      0   0   0     0.000000000000     0.00000000     0.00000000
 C      1   0   0     1.514149524267     0.00000000     0.00000000
 C      2   1   0     1.514344581533   116.56301764     0.00000000
 O      2   1   3     1.209340993525   121.72380339   180.06783703
 H      1   2   3     1.086984244199   109.99448809   180.19334300
 H      1   2   3     1.092549262994   110.32997024   301.31472250
 H      1   2   3     1.092665186937   110.33086325    59.06060022
 H      3   2   1     1.092653983964   110.32397897    58.82824171
 H      3   2   1     1.092419476663   110.30658804   301.13986606
 H      3   2   1     1.086963549624   109.99834473   179.96548714

---------------------------
INTERNAL COORDINATES (A.U.)
---------------------------
 C      0   0   0     0.000000000000     0.00000000     0.00000000
 C      1   0   0     2.861327926672     0.00000000     0.00000000
 C      2   1   0     2.861696531486   116.56301764     0.00000000
 O      2   1   3     2.285323280286   121.72380339   180.06783703
 H      1   2   3     2.054102533424   109.99448809   180.19334300
 H      1   2   3     2.064618894875   110.32997024   301.31472250
 H      1   2   3     2.064837959380   110.33086325    59.06060022
 H      3   2   1     2.064816788831   110.32397897    58.82824171
 H      3   2   1     2.064373634254   110.30658804   301.13986606
 H      3   2   1     2.054063426343   109.99834473   179.96548714

---------------------
BASIS SET INFORMATION
---------------------
There are 3 groups of distinct atoms

 Group   1 Type C   : 19s6p3d2f contracted to 5s4p3d2f pattern {88111/3111/111/11}
 Group   2 Type O   : 19s6p3d2f contracted to 5s4p3d2f pattern {88111/3111/111/11}
 Group   3 Type H   : 6s3p2d contracted to 4s3p2d pattern {3111/111/11}

Atom   0C    basis set group =>   1
Atom   1C    basis set group =>   1
Atom   2C    basis set group =>   1
Atom   3O    basis set group =>   2
Atom   4H    basis set group =>   3
Atom   5H    basis set group =>   3
Atom   6H    basis set group =>   3
Atom   7H    basis set group =>   3
Atom   8H    basis set group =>   3
Atom   9H    basis set group =>   3


           ************************************************************
           *        Program running with 16 parallel MPI-processes    *
           *              working on a common directory               *
           ************************************************************
------------------------------------------------------------------------------
                           ORCA GTO INTEGRAL CALCULATION
------------------------------------------------------------------------------

                         BASIS SET STATISTICS AND STARTUP INFO

 # of primitive gaussian shells          ...  186
 # of primitive gaussian functions       ...  414
 # of contracted shells                  ...  110
 # of contracted basis functions         ...  322
 Highest angular momentum                ...    3
 Maximum contraction depth               ...    8
 Integral package used                   ... LIBINT
 Integral threshhold            Thresh   ...  2.500e-11
 Primitive cut-off              TCut     ...  2.500e-12


------------------------------ INTEGRAL EVALUATION ----------------------------


 * One electron integrals 
 Pre-screening matrix                    ... done
 Shell pair data                         ... done (   0.002 sec)



           ************************************************************
           *        Program running with 16 parallel MPI-processes    *
           *              working on a common directory               *
           ************************************************************
-------------------------------------------------------------------------------
                                 ORCA SCF
-------------------------------------------------------------------------------

------------
SCF SETTINGS
------------
Hamiltonian:
 Ab initio Hamiltonian  Method          .... Hartree-Fock(GTOs)


General Settings:
 Integral files         IntName         .... acetone_MP2_aug-cc-pVTZ_OPT
 Hartree-Fock type      HFTyp           .... RHF
 Total Charge           Charge          ....    0
 Multiplicity           Mult            ....    1
 Number of Electrons    NEL             ....   32
 Basis Dimension        Dim             ....  322
 Nuclear Repulsion      ENuc            ....    119.5120533379 Eh

Convergence Acceleration:
 DIIS                   CNVDIIS         .... on
   Start iteration      DIISMaxIt       ....    12
   Startup error        DIISStart       ....  0.200000
   # of expansion vecs  DIISMaxEq       ....     5
   Bias factor          DIISBfac        ....   1.050
   Max. coefficient     DIISMaxC        ....  10.000
 Newton-Raphson         CNVNR           .... off
 SOSCF                  CNVSOSCF        .... on
   Start iteration      SOSCFMaxIt      ....   150
   Startup grad/error   SOSCFStart      ....  0.003300
 Level Shifting         CNVShift        .... on
   Level shift para.    LevelShift      ....    0.2500
   Turn off err/grad.   ShiftErr        ....    0.0010
 Zerner damping         CNVZerner       .... off
 Static damping         CNVDamp         .... on
   Fraction old density DampFac         ....    0.7000
   Max. Damping (<1)    DampMax         ....    0.9800
   Min. Damping (>=0)   DampMin         ....    0.0000
   Turn off err/grad.   DampErr         ....    0.1000
 Fernandez-Rico         CNVRico         .... off

SCF Procedure:
 Maximum # iterations   MaxIter         ....   125
 SCF integral mode      SCFMode         .... Direct
   Integral package                     .... LIBINT
 Reset frequency        DirectResetFreq ....    20
 Integral Threshold     Thresh          ....  2.500e-11 Eh
 Primitive CutOff       TCut            ....  2.500e-12 Eh

Convergence Tolerance:
 Convergence Check Mode ConvCheckMode   .... Total+1el-Energy
 Convergence forced     ConvForced      .... 1
 Energy Change          TolE            ....  1.000e-08 Eh
 1-El. energy change                    ....  1.000e-05 Eh
 Orbital Gradient       TolG            ....  1.000e-05
 Orbital Rotation angle TolX            ....  1.000e-05
 DIIS Error             TolErr          ....  5.000e-07


Diagonalization of the overlap matrix:
Smallest eigenvalue                        ... 1.974e-05
Time for diagonalization                   ...    0.027 sec
Threshold for overlap eigenvalues          ... 1.000e-08
Number of eigenvalues below threshold      ... 0
Time for construction of square roots      ...    0.031 sec
Total time needed                          ...    0.058 sec

-------------------
DFT GRID GENERATION
-------------------

General Integration Accuracy     IntAcc      ...  4.340
Radial Grid Type                 RadialGrid  ... Gauss-Chebyshev
Angular Grid (max. acc.)         AngularGrid ... Lebedev-110
Angular grid pruning method      GridPruning ... 3 (G Style)
Weight generation scheme         WeightScheme... Becke
Basis function cutoff            BFCut       ...    1.0000e-11
Integration weight cutoff        WCut        ...    1.0000e-14
Grids for H and He will be reduced by one unit

# of grid points (after initial pruning)     ...  11448 (   0.0 sec)
# of grid points (after weights+screening)   ...  10884 (   0.0 sec)
nearest neighbour list constructed           ...    0.0 sec
Grid point re-assignment to atoms done       ...    0.0 sec
Grid point division into batches done        ...    0.0 sec
Reduced shell lists constructed in    0.0 sec

Total number of grid points                  ...    10884
Total number of batches                      ...      176
Average number of points per batch           ...       61
Average number of grid points per atom       ...     1088
Average number of shells per batch           ...    95.50 (86.82%)
Average number of basis functions per batch  ...   280.17 (87.01%)
Average number of large shells per batch     ...    87.00 (91.10%)
Average number of large basis fcns per batch ...   254.33 (90.78%)
Maximum spatial batch extension              ...   2.27,  2.09,  1.98 au
Average spatial batch extension              ...   0.09,  0.09,  0.09 au

Time for grid setup =    0.021 sec

------------------------------
INITIAL GUESS: MODEL POTENTIAL
------------------------------
Loading Hartree-Fock densities                     ... done
Calculating cut-offs                               ... done
Setting up the integral package                    ... done
Initializing the effective Hamiltonian             ... done
Starting the Coulomb interaction                   ... done (   0.0 sec)
Reading the grid                                   ... done
Mapping shells                                     ... done
Starting the XC term evaluation                    ... done (   0.0 sec)
Transforming the Hamiltonian                       ... done (   0.0 sec)
Diagonalizing the Hamiltonian                      ... done (   0.0 sec)
Back transforming the eigenvectors                 ... done (   0.0 sec)
Now organizing SCF variables                       ... done
                      ------------------
                      INITIAL GUESS DONE (   0.2 sec)
                      ------------------
--------------
SCF ITERATIONS
--------------
ITER       Energy         Delta-E        Max-DP      RMS-DP      [F,P]     Damp
               ***  Starting incremental Fock matrix formation  ***
  0   -191.7980917105   0.000000000000 0.02751473  0.00063698  0.2965974 0.7000
  1   -191.8819277235  -0.083836013015 0.01998534  0.00049213  0.1752121 0.7000
                               ***Turning on DIIS***
  2   -191.9323185200  -0.050390796516 0.01472428  0.00034280  0.1093864 0.7000
  3   -192.4248971390  -0.492578618943 0.04062241  0.00085364  0.0824841 0.0000
  4   -191.9865005669   0.438396572092 0.01190615  0.00015182  0.0079745 0.0000
  5   -192.0338190938  -0.047318526956 0.00398624  0.00006067  0.0037544 0.0000
                      *** Initiating the SOSCF procedure ***
                           *** Shutting down DIIS ***
                      *** Re-Reading the Fockian *** 
                      *** Removing any level shift *** 
ITER      Energy       Delta-E        Grad      Rot      Max-DP    RMS-DP
  6   -192.03403074  -0.0002116438  0.001878  0.001878  0.001603  0.000026
               *** Restarting incremental Fock matrix formation ***
  7   -192.03657319  -0.0025424568  0.000520  0.000806  0.000730  0.000015
  8   -192.03658038  -0.0000071903  0.000462  0.001386  0.000620  0.000014
  9   -192.03658297  -0.0000025812  0.000122  0.000158  0.000212  0.000004
 10   -192.03658327  -0.0000003020  0.000043  0.000064  0.000072  0.000001
 11   -192.03658330  -0.0000000286  0.000012  0.000025  0.000031  0.000000
                  ***Gradient check signals convergence***
              ***Rediagonalizing the Fockian in SOSCF/NRSCF***

               *****************************************************
               *                     SUCCESS                       *
               *           SCF CONVERGED AFTER  12 CYCLES          *
               *****************************************************


----------------
TOTAL SCF ENERGY
----------------

Total Energy       :         -192.03658330 Eh           -5225.58110 eV

Components:
Nuclear Repulsion  :          119.51205334 Eh            3252.08830 eV
Electronic Energy  :         -311.54863664 Eh           -8477.66940 eV
One Electron Energy:         -497.17346158 Eh          -13528.77768 eV
Two Electron Energy:          185.62482495 Eh            5051.10828 eV

Virial components:
Potential Energy   :         -383.79728546 Eh          -10443.65508 eV
Kinetic Energy     :          191.76070216 Eh            5218.07399 eV
Virial Ratio       :            2.00143867


---------------
SCF CONVERGENCE
---------------

  Last Energy change         ...   -4.1364e-09  Tolerance :   1.0000e-08
  Last MAX-Density change    ...    6.3923e-06  Tolerance :   1.0000e-07
  Last RMS-Density change    ...    1.2177e-07  Tolerance :   5.0000e-09
  Last Orbital Gradient      ...    1.6491e-06  Tolerance :   1.0000e-05
  Last Orbital Rotation      ...    3.0569e-06  Tolerance :   1.0000e-05

             **** THE GBW FILE WAS UPDATED (acetone_MP2_aug-cc-pVTZ_OPT.gbw) ****
             **** DENSITY FILE WAS UPDATED (acetone_MP2_aug-cc-pVTZ_OPT.scfp) ****
             **** ENERGY FILE WAS UPDATED (acetone_MP2_aug-cc-pVTZ_OPT.en.tmp) ****
             **** THE GBW FILE WAS UPDATED (acetone_MP2_aug-cc-pVTZ_OPT.gbw) ****
             **** DENSITY FILE WAS UPDATED (acetone_MP2_aug-cc-pVTZ_OPT.scfp) ****
----------------
ORBITAL ENERGIES
----------------

  NO   OCC          E(Eh)            E(eV) 
   0   2.0000     -20.545671      -559.0761 
   1   2.0000     -11.332617      -308.3762 
   2   2.0000     -11.235443      -305.7320 
   3   2.0000     -11.235417      -305.7312 
   4   2.0000      -1.388154       -37.7736 
   5   2.0000      -1.041836       -28.3498 
   6   2.0000      -0.968096       -26.3432 
   7   2.0000      -0.742400       -20.2017 
   8   2.0000      -0.646426       -17.5901 
   9   2.0000      -0.637186       -17.3387 
  10   2.0000      -0.623481       -16.9658 
  11   2.0000      -0.563051       -15.3214 
  12   2.0000      -0.559951       -15.2370 
  13   2.0000      -0.538132       -14.6433 
  14   2.0000      -0.490053       -13.3350 
  15   2.0000      -0.414039       -11.2666 
  16   0.0000       0.025844         0.7032 
  17   0.0000       0.036681         0.9981 
  18   0.0000       0.039731         1.0811 
  19   0.0000       0.049668         1.3515 
  20   0.0000       0.061374         1.6701 
  21   0.0000       0.062117         1.6903 
  22   0.0000       0.077790         2.1168 
  23   0.0000       0.103693         2.8216 
  24   0.0000       0.111750         3.0409 
  25   0.0000       0.121149         3.2966 
  26   0.0000       0.128901         3.5076 
  27   0.0000       0.130764         3.5583 
  28   0.0000       0.131278         3.5723 
  29   0.0000       0.135686         3.6922 
  30   0.0000       0.145460         3.9582 
  31   0.0000       0.150677         4.1001 
  32   0.0000       0.155395         4.2285 
  33   0.0000       0.179256         4.8778 
  34   0.0000       0.192965         5.2508 
  35   0.0000       0.195157         5.3105 
  36   0.0000       0.219786         5.9807 
  37   0.0000       0.230737         6.2787 
  38   0.0000       0.239363         6.5134 
  39   0.0000       0.249109         6.7786 
  40   0.0000       0.258944         7.0462 
  41   0.0000       0.283831         7.7234 
  42   0.0000       0.284765         7.7489 
  43   0.0000       0.295903         8.0519 
  44   0.0000       0.313901         8.5417 
  45   0.0000       0.328133         8.9290 
  46   0.0000       0.332264         9.0414 
  47   0.0000       0.335499         9.1294 
  48   0.0000       0.352811         9.6005 
  49   0.0000       0.353019         9.6061 
  50   0.0000       0.353244         9.6123 
  51   0.0000       0.357451         9.7267 
  52   0.0000       0.359429         9.7806 
  53   0.0000       0.370234        10.0746 
  54   0.0000       0.372309        10.1310 
  55   0.0000       0.395998        10.7757 
  56   0.0000       0.397649        10.8206 
  57   0.0000       0.405803        11.0425 
  58   0.0000       0.419754        11.4221 
  59   0.0000       0.423535        11.5250 
  60   0.0000       0.425358        11.5746 
  61   0.0000       0.431131        11.7317 
  62   0.0000       0.437301        11.8996 
  63   0.0000       0.441716        12.0197 
  64   0.0000       0.472491        12.8571 
  65   0.0000       0.475429        12.9371 
  66   0.0000       0.475683        12.9440 
  67   0.0000       0.486530        13.2392 
  68   0.0000       0.494483        13.4556 
  69   0.0000       0.504407        13.7256 
  70   0.0000       0.515895        14.0382 
  71   0.0000       0.534277        14.5384 
  72   0.0000       0.541517        14.7354 
  73   0.0000       0.567396        15.4396 
  74   0.0000       0.591817        16.1042 
  75   0.0000       0.594200        16.1690 
  76   0.0000       0.594909        16.1883 
  77   0.0000       0.603385        16.4189 
  78   0.0000       0.620917        16.8960 
  79   0.0000       0.648838        17.6558 
  80   0.0000       0.656212        17.8564 
  81   0.0000       0.722424        19.6582 
  82   0.0000       0.753972        20.5166 
  83   0.0000       0.758748        20.6466 
  84   0.0000       0.763830        20.7849 
  85   0.0000       0.772182        21.0121 
  86   0.0000       0.786966        21.4144 
  87   0.0000       0.788047        21.4439 
  88   0.0000       0.816270        22.2118 
  89   0.0000       0.832363        22.6498 
  90   0.0000       0.835264        22.7287 
  91   0.0000       0.835726        22.7413 
  92   0.0000       0.850847        23.1527 
  93   0.0000       0.880272        23.9534 
  94   0.0000       0.884738        24.0749 
  95   0.0000       0.888741        24.1839 
  96   0.0000       0.898190        24.4410 
  97   0.0000       0.899414        24.4743 
  98   0.0000       0.899826        24.4855 
  99   0.0000       0.914009        24.8714 
 100   0.0000       0.917570        24.9684 
 101   0.0000       0.933647        25.4058 
 102   0.0000       0.944221        25.6936 
 103   0.0000       0.950146        25.8548 
 104   0.0000       0.976132        26.5619 
 105   0.0000       0.999074        27.1862 
 106   0.0000       1.004643        27.3377 
 107   0.0000       1.024041        27.8656 
 108   0.0000       1.027199        27.9515 
 109   0.0000       1.027762        27.9668 
 110   0.0000       1.033397        28.1202 
 111   0.0000       1.060515        28.8581 
 112   0.0000       1.083954        29.4959 
 113   0.0000       1.084073        29.4991 
 114   0.0000       1.094139        29.7730 
 115   0.0000       1.094663        29.7873 
 116   0.0000       1.108036        30.1512 
 117   0.0000       1.129164        30.7261 
 118   0.0000       1.136267        30.9194 
 119   0.0000       1.144774        31.1509 
 120   0.0000       1.174302        31.9544 
 121   0.0000       1.179373        32.0924 
 122   0.0000       1.183310        32.1995 
 123   0.0000       1.201623        32.6978 
 124   0.0000       1.207701        32.8632 
 125   0.0000       1.233564        33.5670 
 126   0.0000       1.241502        33.7830 
 127   0.0000       1.247877        33.9564 
 128   0.0000       1.265142        34.4263 
 129   0.0000       1.267701        34.4959 
 130   0.0000       1.292410        35.1683 
 131   0.0000       1.323210        36.0064 
 132   0.0000       1.338195        36.4141 
 133   0.0000       1.350409        36.7465 
 134   0.0000       1.355686        36.8901 
 135   0.0000       1.400399        38.1068 
 136   0.0000       1.407958        38.3125 
 137   0.0000       1.435414        39.0596 
 138   0.0000       1.471682        40.0465 
 139   0.0000       1.475566        40.1522 
 140   0.0000       1.480571        40.2884 
 141   0.0000       1.522389        41.4263 
 142   0.0000       1.530495        41.6469 
 143   0.0000       1.532641        41.7053 
 144   0.0000       1.546315        42.0774 
 145   0.0000       1.570111        42.7249 
 146   0.0000       1.600419        43.5496 
 147   0.0000       1.604272        43.6545 
 148   0.0000       1.608766        43.7767 
 149   0.0000       1.638756        44.5928 
 150   0.0000       1.667121        45.3647 
 151   0.0000       1.669809        45.4378 
 152   0.0000       1.681931        45.7677 
 153   0.0000       1.691901        46.0390 
 154   0.0000       1.703761        46.3617 
 155   0.0000       1.710636        46.5488 
 156   0.0000       1.763359        47.9834 
 157   0.0000       1.770885        48.1882 
 158   0.0000       1.783911        48.5427 
 159   0.0000       1.787646        48.6443 
 160   0.0000       1.794867        48.8408 
 161   0.0000       1.824484        49.6467 
 162   0.0000       1.839690        50.0605 
 163   0.0000       1.857170        50.5362 
 164   0.0000       1.865947        50.7750 
 165   0.0000       1.894613        51.5551 
 166   0.0000       1.938938        52.7612 
 167   0.0000       1.943636        52.8890 
 168   0.0000       1.944777        52.9201 
 169   0.0000       1.983226        53.9663 
 170   0.0000       1.991064        54.1796 
 171   0.0000       2.010843        54.7178 
 172   0.0000       2.039411        55.4952 
 173   0.0000       2.080121        56.6030 
 174   0.0000       2.112096        57.4731 
 175   0.0000       2.158753        58.7427 
 176   0.0000       2.175479        59.1978 
 177   0.0000       2.192943        59.6730 
 178   0.0000       2.196668        59.7744 
 179   0.0000       2.198420        59.8221 
 180   0.0000       2.224086        60.5205 
 181   0.0000       2.228695        60.6459 
 182   0.0000       2.251517        61.2669 
 183   0.0000       2.313675        62.9583 
 184   0.0000       2.350705        63.9659 
 185   0.0000       2.362485        64.2865 
 186   0.0000       2.385511        64.9131 
 187   0.0000       2.439616        66.3853 
 188   0.0000       2.489220        67.7351 
 189   0.0000       2.518173        68.5230 
 190   0.0000       2.523703        68.6735 
 191   0.0000       2.634514        71.6888 
 192   0.0000       2.656259        72.2805 
 193   0.0000       2.659867        72.3787 
 194   0.0000       2.675271        72.7978 
 195   0.0000       2.687776        73.1381 
 196   0.0000       2.785048        75.7850 
 197   0.0000       2.813898        76.5701 
 198   0.0000       2.883223        78.4565 
 199   0.0000       2.948483        80.2323 
 200   0.0000       2.961563        80.5882 
 201   0.0000       3.013798        82.0096 
 202   0.0000       3.125195        85.0409 
 203   0.0000       3.140018        85.4442 
 204   0.0000       3.177288        86.4584 
 205   0.0000       3.182106        86.5895 
 206   0.0000       3.302611        89.8686 
 207   0.0000       3.337698        90.8234 
 208   0.0000       3.395905        92.4073 
 209   0.0000       3.397840        92.4599 
 210   0.0000       3.417606        92.9978 
 211   0.0000       3.424735        93.1918 
 212   0.0000       3.458650        94.1147 
 213   0.0000       3.478969        94.6676 
 214   0.0000       3.508834        95.4802 
 215   0.0000       3.548509        96.5598 
 216   0.0000       3.586365        97.5900 
 217   0.0000       3.590567        97.7043 
 218   0.0000       3.601123        97.9915 
 219   0.0000       3.619183        98.4830 
 220   0.0000       3.664621        99.7194 
 221   0.0000       3.673215        99.9533 
 222   0.0000       3.688047       100.3568 
 223   0.0000       3.689388       100.3934 
 224   0.0000       3.703959       100.7899 
 225   0.0000       3.776847       102.7732 
 226   0.0000       3.800457       103.4157 
 227   0.0000       3.873948       105.4155 
 228   0.0000       3.877511       105.5125 
 229   0.0000       3.918052       106.6156 
 230   0.0000       3.930059       106.9423 
 231   0.0000       3.941721       107.2597 
 232   0.0000       3.951993       107.5392 
 233   0.0000       3.961358       107.7940 
 234   0.0000       3.966676       107.9387 
 235   0.0000       3.980108       108.3042 
 236   0.0000       4.028096       109.6101 
 237   0.0000       4.059704       110.4702 
 238   0.0000       4.090415       111.3059 
 239   0.0000       4.104181       111.6804 
 240   0.0000       4.108732       111.8043 
 241   0.0000       4.133291       112.4726 
 242   0.0000       4.149676       112.9184 
 243   0.0000       4.174920       113.6054 
 244   0.0000       4.177191       113.6671 
 245   0.0000       4.191796       114.0646 
 246   0.0000       4.223697       114.9326 
 247   0.0000       4.241712       115.4229 
 248   0.0000       4.314569       117.4054 
 249   0.0000       4.371626       118.9580 
 250   0.0000       4.388417       119.4149 
 251   0.0000       4.432635       120.6181 
 252   0.0000       4.444055       120.9289 
 253   0.0000       4.453527       121.1866 
 254   0.0000       4.460866       121.3863 
 255   0.0000       4.518841       122.9639 
 256   0.0000       4.553426       123.9050 
 257   0.0000       4.616607       125.6243 
 258   0.0000       4.627801       125.9289 
 259   0.0000       4.695162       127.7618 
 260   0.0000       4.698995       127.8661 
 261   0.0000       4.728602       128.6718 
 262   0.0000       4.738104       128.9304 
 263   0.0000       4.792432       130.4087 
 264   0.0000       4.836568       131.6097 
 265   0.0000       4.842913       131.7824 
 266   0.0000       4.844358       131.8217 
 267   0.0000       4.846984       131.8932 
 268   0.0000       4.916026       133.7719 
 269   0.0000       4.939429       134.4087 
 270   0.0000       4.985813       135.6709 
 271   0.0000       4.988924       135.7555 
 272   0.0000       5.047699       137.3549 
 273   0.0000       5.119239       139.3016 
 274   0.0000       5.166516       140.5881 
 275   0.0000       5.173813       140.7866 
 276   0.0000       5.214665       141.8983 
 277   0.0000       5.219417       142.0276 
 278   0.0000       5.292982       144.0294 
 279   0.0000       5.316614       144.6724 
 280   0.0000       5.365028       145.9898 
 281   0.0000       5.374062       146.2357 
 282   0.0000       5.394508       146.7920 
 283   0.0000       5.412846       147.2910 
 284   0.0000       5.447748       148.2408 
 285   0.0000       5.542357       150.8152 
 286   0.0000       5.604820       152.5149 
 287   0.0000       5.613633       152.7547 
 288   0.0000       5.655016       153.8808 
 289   0.0000       5.710250       155.3838 
 290   0.0000       5.723035       155.7317 
 291   0.0000       5.756003       156.6288 
 292   0.0000       5.872839       159.8081 
 293   0.0000       5.941518       161.6769 
 294   0.0000       5.987080       162.9167 
 295   0.0000       6.003517       163.3640 
 296   0.0000       6.122726       166.6078 
 297   0.0000       6.134811       166.9367 
 298   0.0000       6.138656       167.0413 
 299   0.0000       6.146414       167.2524 
 300   0.0000       6.258371       170.2989 
 301   0.0000       6.428897       174.9392 
 302   0.0000       6.672536       181.5689 
 303   0.0000       6.683245       181.8603 
 304   0.0000       6.719676       182.8517 
 305   0.0000       6.727334       183.0601 
 306   0.0000       6.736173       183.3006 
 307   0.0000       6.777009       184.4118 
 308   0.0000       7.041637       191.6127 
 309   0.0000       7.071770       192.4326 
 310   0.0000       7.259566       197.5428 
 311   0.0000       7.362124       200.3336 
 312   0.0000       7.459884       202.9938 
 313   0.0000       7.515411       204.5047 
 314   0.0000       7.593063       206.6177 
 315   0.0000       7.684828       209.1148 
 316   0.0000       7.843699       213.4379 
 317   0.0000       7.944109       216.1702 
 318   0.0000      15.382137       418.5692 
 319   0.0000      16.972072       461.8336 
 320   0.0000      17.278642       470.1758 
 321   0.0000      19.427552       528.6506 

                    ********************************
                    * MULLIKEN POPULATION ANALYSIS *
                    ********************************

-----------------------
MULLIKEN ATOMIC CHARGES
-----------------------
   0 C :   -0.787708
   1 C :    0.495958
   2 C :   -0.788091
   3 O :   -0.730680
   4 H :    0.287060
   5 H :    0.309180
   6 H :    0.308968
   7 H :    0.309008
   8 H :    0.309106
   9 H :    0.287199
Sum of atomic charges:   -0.0000000

--------------------------------
MULLIKEN REDUCED ORBITAL CHARGES
--------------------------------
  0 C s       :     3.170818  s :     3.170818
      pz      :     1.101185  p :     3.463753
      px      :     1.277544
      py      :     1.085024
      dz2     :     0.008645  d :     0.147128
      dxz     :     0.051699
      dyz     :     0.028070
      dx2y2   :     0.050352
      dxy     :     0.008361
      f0      :    -0.000244  f :     0.006009
      f+1     :     0.001386
      f-1     :    -0.000596
      f+2     :     0.004448
      f-2     :    -0.000463
      f+3     :    -0.000210
      f-3     :     0.001689
  1 C s       :     3.282299  s :     3.282299
      pz      :     0.738927  p :     2.101539
      px      :     0.694126
      py      :     0.668486
      dz2     :     0.008215  d :     0.104386
      dxz     :     0.031439
      dyz     :     0.027682
      dx2y2   :     0.050500
      dxy     :    -0.013450
      f0      :     0.004127  f :     0.015819
      f+1     :     0.000970
      f-1     :     0.000537
      f+2     :     0.000519
      f-2     :     0.000410
      f+3     :     0.005781
      f-3     :     0.003475
  2 C s       :     3.171033  s :     3.171033
      pz      :     1.145612  p :     3.463861
      px      :     1.055119
      py      :     1.263131
      dz2     :     0.007642  d :     0.147177
      dxz     :     0.037101
      dyz     :     0.046930
      dx2y2   :     0.045531
      dxy     :     0.009973
      f0      :    -0.000161  f :     0.006020
      f+1     :     0.000166
      f-1     :     0.000495
      f+2     :     0.004209
      f-2     :     0.001153
      f+3     :     0.000366
      f-3     :    -0.000208
  3 O s       :     4.005224  s :     4.005224
      pz      :     1.697875  p :     4.668163
      px      :     1.482663
      py      :     1.487626
      dz2     :     0.003739  d :     0.051779
      dxz     :     0.012000
      dyz     :     0.007093
      dx2y2   :     0.019193
      dxy     :     0.009753
      f0      :     0.000939  f :     0.005514
      f+1     :     0.000302
      f-1     :     0.000251
      f+2     :     0.000270
      f-2     :     0.001193
      f+3     :     0.001772
      f-3     :     0.000788
  4 H s       :     0.651422  s :     0.651422
      pz      :     0.022818  p :     0.055883
      px      :     0.018214
      py      :     0.014851
      dz2     :     0.001329  d :     0.005634
      dxz     :     0.000333
      dyz     :     0.001141
      dx2y2   :     0.000458
      dxy     :     0.002374
  5 H s       :     0.637454  s :     0.637454
      pz      :     0.008583  p :     0.046858
      px      :     0.016765
      py      :     0.021510
      dz2     :     0.000677  d :     0.006509
      dxz     :     0.000997
      dyz     :     0.001972
      dx2y2   :     0.000604
      dxy     :     0.002260
  6 H s       :     0.637600  s :     0.637600
      pz      :     0.018439  p :     0.046905
      px      :     0.017521
      py      :     0.010945
      dz2     :     0.001814  d :     0.006526
      dxz     :    -0.000834
      dyz     :     0.002844
      dx2y2   :     0.000993
      dxy     :     0.001709
  7 H s       :     0.637677  s :     0.637677
      pz      :     0.017636  p :     0.046796
      px      :     0.012473
      py      :     0.016688
      dz2     :     0.001130  d :     0.006519
      dxz     :     0.002229
      dyz     :     0.000068
      dx2y2   :     0.001164
      dxy     :     0.001928
  8 H s       :     0.637391  s :     0.637391
      pz      :     0.009593  p :     0.046982
      px      :     0.020663
      py      :     0.016726
      dz2     :     0.001871  d :     0.006521
      dxz     :     0.000345
      dyz     :     0.001239
      dx2y2   :     0.001632
      dxy     :     0.001434
  9 H s       :     0.651259  s :     0.651259
      pz      :     0.023743  p :     0.055900
      px      :     0.013434
      py      :     0.018724
      dz2     :     0.001991  d :     0.005641
      dxz     :     0.001655
      dyz     :    -0.000791
      dx2y2   :     0.001204
      dxy     :     0.001583


                     *******************************
                     * LOEWDIN POPULATION ANALYSIS *
                     *******************************

----------------------
LOEWDIN ATOMIC CHARGES
----------------------
   0 C :    0.578618
   1 C :   -0.542228
   2 C :    0.578756
   3 O :    0.453210
   4 H :   -0.184300
   5 H :   -0.175043
   6 H :   -0.174735
   7 H :   -0.174926
   8 H :   -0.175088
   9 H :   -0.184263

-------------------------------
LOEWDIN REDUCED ORBITAL CHARGES
-------------------------------
  0 C s       :     2.460631  s :     2.460631
      pz      :     0.757457  p :     2.292361
      px      :     0.778320
      py      :     0.756584
      dz2     :     0.050860  d :     0.490614
      dxz     :     0.140531
      dyz     :     0.128631
      dx2y2   :     0.125168
      dxy     :     0.045424
      f0      :     0.024277  f :     0.177776
      f+1     :     0.013632
      f-1     :     0.032578
      f+2     :     0.032890
      f-2     :     0.032528
      f+3     :     0.023480
      f-3     :     0.018391
  1 C s       :     2.497066  s :     2.497066
      pz      :     0.658433  p :     2.156301
      px      :     0.790466
      py      :     0.707402
      dz2     :     0.176756  d :     1.239503
      dxz     :     0.266794
      dyz     :     0.212549
      dx2y2   :     0.324228
      dxy     :     0.259175
      f0      :     0.064201  f :     0.649358
      f+1     :     0.100182
      f-1     :     0.065895
      f+2     :     0.035067
      f-2     :     0.149226
      f+3     :     0.118669
      f-3     :     0.116118
  2 C s       :     2.460635  s :     2.460635
      pz      :     0.762071  p :     2.292324
      px      :     0.755348
      py      :     0.774906
      dz2     :     0.044855  d :     0.490549
      dxz     :     0.137353
      dyz     :     0.126590
      dx2y2   :     0.128495
      dxy     :     0.053256
      f0      :     0.020298  f :     0.177736
      f+1     :     0.035839
      f-1     :     0.009614
      f+2     :     0.032741
      f-2     :     0.026696
      f+3     :     0.022841
      f-3     :     0.029708
  3 O s       :     3.199621  s :     3.199621
      pz      :     1.337002  p :     4.060017
      px      :     1.391872
      py      :     1.331144
      dz2     :     0.022721  d :     0.213334
      dxz     :     0.037947
      dyz     :     0.033170
      dx2y2   :     0.058930
      dxy     :     0.060566
      f0      :     0.009176  f :     0.073817
      f+1     :     0.007654
      f-1     :     0.004369
      f+2     :     0.001560
      f-2     :     0.014708
      f+3     :     0.018428
      f-3     :     0.017922
  4 H s       :     0.641582  s :     0.641582
      pz      :     0.097172  p :     0.310617
      px      :     0.132079
      py      :     0.081367
      dz2     :     0.038390  d :     0.232101
      dxz     :     0.056001
      dyz     :     0.038666
      dx2y2   :     0.050184
      dxy     :     0.048860
  5 H s       :     0.634579  s :     0.634579
      pz      :     0.097729  p :     0.312640
      px      :     0.086676
      py      :     0.128236
      dz2     :     0.027475  d :     0.227824
      dxz     :     0.033118
      dyz     :     0.066006
      dx2y2   :     0.046905
      dxy     :     0.054320
  6 H s       :     0.634537  s :     0.634537
      pz      :     0.102209  p :     0.312473
      px      :     0.125501
      py      :     0.084763
      dz2     :     0.045934  d :     0.227725
      dxz     :     0.047483
      dyz     :     0.048867
      dx2y2   :     0.049277
      dxy     :     0.036164
  7 H s       :     0.634539  s :     0.634539
      pz      :     0.095604  p :     0.312586
      px      :     0.082966
      py      :     0.134016
      dz2     :     0.033507  d :     0.227801
      dxz     :     0.037729
      dyz     :     0.058698
      dx2y2   :     0.049044
      dxy     :     0.048823
  8 H s       :     0.634583  s :     0.634583
      pz      :     0.106195  p :     0.312670
      px      :     0.119524
      py      :     0.086951
      dz2     :     0.038685  d :     0.227835
      dxz     :     0.054627
      dyz     :     0.044354
      dx2y2   :     0.047932
      dxy     :     0.042236
  9 H s       :     0.641638  s :     0.641638
      pz      :     0.107308  p :     0.310569
      px      :     0.081796
      py      :     0.121465
      dz2     :     0.049364  d :     0.232055
      dxz     :     0.052161
      dyz     :     0.045381
      dx2y2   :     0.049251
      dxy     :     0.035899


                      *****************************
                      * MAYER POPULATION ANALYSIS *
                      *****************************

  NA   - Mulliken gross atomic population
  ZA   - Total nuclear charge
  QA   - Mulliken gross atomic charge
  VA   - Mayer's total valence
  BVA  - Mayer's bonded valence
  FA   - Mayer's free valence

  ATOM       NA         ZA         QA         VA         BVA        FA
  0 C      6.7877     6.0000    -0.7877     3.7806     3.7806     0.0000
  1 C      5.5040     6.0000     0.4960     3.1932     3.1932    -0.0000
  2 C      6.7881     6.0000    -0.7881     3.7808     3.7808    -0.0000
  3 O      8.7307     8.0000    -0.7307     1.4300     1.4300     0.0000
  4 H      0.7129     1.0000     0.2871     1.0574     1.0574     0.0000
  5 H      0.6908     1.0000     0.3092     0.9910     0.9910     0.0000
  6 H      0.6910     1.0000     0.3090     0.9913     0.9913     0.0000
  7 H      0.6910     1.0000     0.3090     0.9910     0.9910    -0.0000
  8 H      0.6909     1.0000     0.3091     0.9915     0.9915    -0.0000
  9 H      0.7128     1.0000     0.2872     1.0573     1.0573    -0.0000

  Mayer bond orders larger than 0.100000
B(  0-C ,  1-C ) :   0.9021 B(  0-C ,  4-H ) :   0.9461 B(  0-C ,  5-H ) :   0.9147 
B(  0-C ,  6-H ) :   0.9145 B(  1-C ,  2-C ) :   0.9023 B(  1-C ,  3-O ) :   1.3591 
B(  2-C ,  7-H ) :   0.9147 B(  2-C ,  8-H ) :   0.9146 B(  2-C ,  9-H ) :   0.9460 


-------
TIMINGS
-------

Total SCF time: 0 days 0 hours 0 min 30 sec 

Total time                  ....      30.449 sec
Sum of individual times     ....      30.066 sec  ( 98.7%)

Fock matrix formation       ....      28.987 sec  ( 95.2%)
Diagonalization             ....       0.279 sec  (  0.9%)
Density matrix formation    ....       0.039 sec  (  0.1%)
Population analysis         ....       0.034 sec  (  0.1%)
Initial guess               ....       0.190 sec  (  0.6%)
Orbital Transformation      ....       0.000 sec  (  0.0%)
Orbital Orthonormalization  ....       0.000 sec  (  0.0%)
DIIS solution               ....       0.144 sec  (  0.5%)
SOSCF solution              ....       0.372 sec  (  1.2%)


           ************************************************************
           *        Program running with 16 parallel MPI-processes    *
           *              working on a common directory               *
           ************************************************************

------------------------------------------------------------------------------
                                ORCA  MP2 
------------------------------------------------------------------------------

Freezing NCore=8 chemical core electrons
MP2 will be done in the AO integral direct mode
The Q1-step will be done using symmetric double matrices
Dimension of the basis                    ...  322
Memory devoted for MP2                    ... 1000 MB   
Memory needed for all in one shot         ...  129 MB
Number of MOs that can be treated together...    6      
MP2 density construction                  ... relaxed
The MP2 gradient is requested => amplitudes will be stored on disk
Total number of MOs              ...   12
Number of MOs treated per batch  ...    1 
Number of batches necessary      ...    1 
OPERATORS   0/  0 PASS   0
-----------------------------------------------
 MP2 CORRELATION ENERGY   :     -0.753337393 Eh
-----------------------------------------------


---------------------
MP2 DENSITY FORMATION
---------------------

Completing the external part of the density      ... done
Storing the unrelaxed density                    ... done

Calculating G(D)                                 ... done
Completing the Lagrangian                        ... done
Solving the Z-vector equations                   ... 

------------------------------------------------------------------------------
                           ORCA CP-SCF CALCULATION
------------------------------------------------------------------------------

Input orbitals are from        ... acetone_MP2_aug-cc-pVTZ_OPT.gbw
Input Perturbation             ... acetone_MP2_aug-cc-pVTZ_OPT.pin.tmp
Wavefunction output            ... acetone_MP2_aug-cc-pVTZ_OPT.pout.tmp
Perturbation mode              ... Real perturbation (singlet)
Solver                         ... POPLE
Max. number of iterations      ... 128
Convergence tolerance          ... 1.000e-08
Integral handling              ... Direct
Number of perturbations        ... 1
Number of operators            ... 1
Orbital ranges used for CP-SCF:
 Operator 0:  Orbitals   0... 15  to  16...321
Variables per vector in CP-SCF ... 4896
Number of vectors sought       ... 1
     CP-SCF ITERATION   0: 
     CP-SCF ITERATION   1:      0.000743961025
     CP-SCF ITERATION   2:      0.000135738315
     CP-SCF ITERATION   3:      0.000006629218
     CP-SCF ITERATION   4:      0.000000731913
     CP-SCF ITERATION   5:      0.000000083995
     CP-SCF ITERATION   6:      0.000000006928
                                                 ... done
Finalizing the relaxed density                   ... done
Transforming P to the AO basis                   ... done
Storing the relaxed density                      ... done

------------------------------------
ENERGY WEIGHTED DENSITY FINALIZATION
------------------------------------

Gathering the parts of the W-matrix              ...                                                      done
Forming the Z-density                            ... done
Transforming Z to the AO basis                   ... done
Calculating G(Z)                                 ... done
Finalizing the W-matrix                          ...                                                      done
Transforming W to the AO basis and storing       ... done

                *********************************************
                * UNRELAXED MP2 DENSITY POPULATION ANALYSIS *
                *********************************************

------------------------------------------------------------------------------
                           ORCA POPULATION ANALYSIS
------------------------------------------------------------------------------
Input electron density              ... acetone_MP2_aug-cc-pVTZ_OPT.pmp2ur
BaseName (.gbw .S,...)              ... acetone_MP2_aug-cc-pVTZ_OPT

                    ********************************
                    * MULLIKEN POPULATION ANALYSIS *
                    ********************************

-----------------------
MULLIKEN ATOMIC CHARGES
-----------------------
   0 C :   -0.787850
   1 C :    0.484693
   2 C :   -0.788227
   3 O :   -0.705608
   4 H :    0.285718
   5 H :    0.306463
   6 H :    0.306263
   7 H :    0.306298
   8 H :    0.306393
   9 H :    0.285856
Sum of atomic charges:   -0.0000000

--------------------------------
MULLIKEN REDUCED ORBITAL CHARGES
--------------------------------
  0 C s       :     3.168629  s :     3.168629
      pz      :     1.092749  p :     3.435098
      px      :     1.265518
      py      :     1.076832
      dz2     :     0.015587  d :     0.174362
      dxz     :     0.056806
      dyz     :     0.031597
      dx2y2   :     0.054422
      dxy     :     0.015950
      f0      :     0.000448  f :     0.009760
      f+1     :     0.002019
      f-1     :     0.000029
      f+2     :     0.004248
      f-2     :     0.000082
      f+3     :     0.000583
      f-3     :     0.002351
  1 C s       :     3.275847  s :     3.275847
      pz      :     0.738922  p :     2.103034
      px      :     0.693208
      py      :     0.670904
      dz2     :     0.011632  d :     0.118470
      dxz     :     0.034367
      dyz     :     0.030622
      dx2y2   :     0.052929
      dxy     :    -0.011080
      f0      :     0.004376  f :     0.017956
      f+1     :     0.001374
      f-1     :     0.000909
      f+2     :     0.001116
      f-2     :     0.000691
      f+3     :     0.005791
      f-3     :     0.003698
  2 C s       :     3.168841  s :     3.168841
      pz      :     1.136308  p :     3.435207
      px      :     1.047453
      py      :     1.251446
      dz2     :     0.014850  d :     0.174409
      dxz     :     0.040455
      dyz     :     0.051798
      dx2y2   :     0.049846
      dxy     :     0.017459
      f0      :     0.000543  f :     0.009771
      f+1     :     0.000771
      f-1     :     0.001205
      f+2     :     0.004007
      f-2     :     0.001575
      f+3     :     0.001110
      f-3     :     0.000559
  3 O s       :     4.002264  s :     4.002264
      pz      :     1.676886  p :     4.612907
      px      :     1.466054
      py      :     1.469967
      dz2     :     0.009806  d :     0.080947
      dxz     :     0.018038
      dyz     :     0.013212
      dx2y2   :     0.024891
      dxy     :     0.015000
      f0      :     0.001465  f :     0.009490
      f+1     :     0.000890
      f-1     :     0.000808
      f+2     :     0.000883
      f-2     :     0.001743
      f+3     :     0.002314
      f-3     :     0.001388
  4 H s       :     0.652506  s :     0.652506
      pz      :     0.022989  p :     0.055870
      px      :     0.017046
      py      :     0.015835
      dz2     :     0.001402  d :     0.005906
      dxz     :     0.000365
      dyz     :     0.001189
      dx2y2   :     0.000494
      dxy     :     0.002457
  5 H s       :     0.639378  s :     0.639378
      pz      :     0.009268  p :     0.047404
      px      :     0.018010
      py      :     0.020126
      dz2     :     0.000798  d :     0.006755
      dxz     :     0.001056
      dyz     :     0.001974
      dx2y2   :     0.000634
      dxy     :     0.002293
  6 H s       :     0.639519  s :     0.639519
      pz      :     0.018478  p :     0.047447
      px      :     0.016709
      py      :     0.012260
      dz2     :     0.001881  d :     0.006771
      dxz     :    -0.000760
      dyz     :     0.002841
      dx2y2   :     0.001039
      dxy     :     0.001770
  7 H s       :     0.639593  s :     0.639593
      pz      :     0.018126  p :     0.047345
      px      :     0.013732
      py      :     0.015486
      dz2     :     0.001214  d :     0.006764
      dxz     :     0.002243
      dyz     :     0.000123
      dx2y2   :     0.001189
      dxy     :     0.001994
  8 H s       :     0.639318  s :     0.639318
      pz      :     0.009866  p :     0.047522
      px      :     0.019678
      py      :     0.017978
      dz2     :     0.001944  d :     0.006767
      dxz     :     0.000396
      dyz     :     0.001293
      dx2y2   :     0.001637
      dxy     :     0.001497
  9 H s       :     0.652345  s :     0.652345
      pz      :     0.023508  p :     0.055886
      px      :     0.014261
      py      :     0.018117
      dz2     :     0.002059  d :     0.005913
      dxz     :     0.001671
      dyz     :    -0.000743
      dx2y2   :     0.001250
      dxy     :     0.001676


                     *******************************
                     * LOEWDIN POPULATION ANALYSIS *
                     *******************************

----------------------
LOEWDIN ATOMIC CHARGES
----------------------
   0 C :    0.568866
   1 C :   -0.541881
   2 C :    0.569004
   3 O :    0.460769
   4 H :   -0.182494
   5 H :   -0.173046
   6 H :   -0.172741
   7 H :   -0.172930
   8 H :   -0.173090
   9 H :   -0.182457

-------------------------------
LOEWDIN REDUCED ORBITAL CHARGES
-------------------------------
  0 C s       :     2.459072  s :     2.459072
      pz      :     0.751895  p :     2.275844
      px      :     0.772815
      py      :     0.751134
      dz2     :     0.055500  d :     0.511437
      dxz     :     0.144412
      dyz     :     0.132349
      dx2y2   :     0.129308
      dxy     :     0.049867
      f0      :     0.025516  f :     0.184782
      f+1     :     0.014486
      f-1     :     0.033569
      f+2     :     0.034399
      f-2     :     0.033212
      f+3     :     0.024365
      f-3     :     0.019236
  1 C s       :     2.495402  s :     2.495402
      pz      :     0.658274  p :     2.152631
      px      :     0.787618
      py      :     0.706739
      dz2     :     0.178718  d :     1.242469
      dxz     :     0.266593
      dyz     :     0.213712
      dx2y2   :     0.322396
      dxy     :     0.261051
      f0      :     0.064482  f :     0.651379
      f+1     :     0.100238
      f-1     :     0.066601
      f+2     :     0.037019
      f-2     :     0.148051
      f+3     :     0.118474
      f-3     :     0.116515
  2 C s       :     2.459076  s :     2.459076
      pz      :     0.756481  p :     2.275808
      px      :     0.749986
      py      :     0.769342
      dz2     :     0.049384  d :     0.511371
      dxz     :     0.141070
      dyz     :     0.130516
      dx2y2   :     0.132566
      dxy     :     0.057835
      f0      :     0.021399  f :     0.184741
      f+1     :     0.036803
      f-1     :     0.010539
      f+2     :     0.034258
      f-2     :     0.027511
      f+3     :     0.023653
      f-3     :     0.030579
  3 O s       :     3.195780  s :     3.195780
      pz      :     1.323205  p :     4.019285
      px      :     1.378338
      py      :     1.317743
      dz2     :     0.028840  d :     0.244399
      dxz     :     0.044157
      dyz     :     0.038967
      dx2y2   :     0.065343
      dxy     :     0.067091
      f0      :     0.009892  f :     0.079767
      f+1     :     0.008400
      f-1     :     0.005117
      f+2     :     0.002329
      f-2     :     0.015537
      f+3     :     0.019564
      f-3     :     0.018927
  4 H s       :     0.636107  s :     0.636107
      pz      :     0.098593  p :     0.314890
      px      :     0.133975
      py      :     0.082323
      dz2     :     0.038235  d :     0.231496
      dxz     :     0.056078
      dyz     :     0.038439
      dx2y2   :     0.050204
      dxy     :     0.048541
  5 H s       :     0.629067  s :     0.629067
      pz      :     0.098844  p :     0.316937
      px      :     0.087478
      py      :     0.130615
      dz2     :     0.027522  d :     0.227043
      dxz     :     0.032924
      dyz     :     0.065771
      dx2y2   :     0.046911
      dxy     :     0.053914
  6 H s       :     0.629026  s :     0.629026
      pz      :     0.103845  p :     0.316771
      px      :     0.127293
      py      :     0.085632
      dz2     :     0.045647  d :     0.226944
      dxz     :     0.047799
      dyz     :     0.048351
      dx2y2   :     0.049107
      dxy     :     0.036040
  7 H s       :     0.629028  s :     0.629028
      pz      :     0.096956  p :     0.316884
      px      :     0.083941
      py      :     0.135987
      dz2     :     0.033456  d :     0.227019
      dxz     :     0.037389
      dyz     :     0.058656
      dx2y2   :     0.049031
      dxy     :     0.048487
  8 H s       :     0.629071  s :     0.629071
      pz      :     0.107473  p :     0.316965
      px      :     0.121737
      py      :     0.087756
      dz2     :     0.038495  d :     0.227053
      dxz     :     0.054793
      dyz     :     0.043961
      dx2y2   :     0.047744
      dxy     :     0.042060
  9 H s       :     0.636163  s :     0.636163
      pz      :     0.108910  p :     0.314842
      px      :     0.082809
      py      :     0.123124
      dz2     :     0.049039  d :     0.231452
      dxz     :     0.051691
      dyz     :     0.045757
      dx2y2   :     0.049152
      dxy     :     0.035813


                      *****************************
                      * MAYER POPULATION ANALYSIS *
                      *****************************

  NA   - Mulliken gross atomic population
  ZA   - Total nuclear charge
  QA   - Mulliken gross atomic charge
  VA   - Mayer's total valence
  BVA  - Mayer's bonded valence
  FA   - Mayer's free valence

  ATOM       NA         ZA         QA         VA         BVA        FA
  0 C      6.7878     6.0000    -0.7878     3.9059     3.5840     0.3220
  1 C      5.5153     6.0000     0.4847     3.2438     2.9341     0.3097
  2 C      6.7882     6.0000    -0.7882     3.9062     3.5842     0.3220
  3 O      8.7056     8.0000    -0.7056     1.7581     1.2791     0.4790
  4 H      0.7143     1.0000     0.2857     1.0579     1.0100     0.0479
  5 H      0.6935     1.0000     0.3065     0.9938     0.9436     0.0502
  6 H      0.6937     1.0000     0.3063     0.9940     0.9438     0.0502
  7 H      0.6937     1.0000     0.3063     0.9938     0.9435     0.0502
  8 H      0.6936     1.0000     0.3064     0.9942     0.9440     0.0502
  9 H      0.7141     1.0000     0.2859     1.0578     1.0098     0.0479

  Mayer bond orders larger than 0.100000
B(  0-C ,  1-C ) :   0.8441 B(  0-C ,  4-H ) :   0.9036 B(  0-C ,  5-H ) :   0.8714 
B(  0-C ,  6-H ) :   0.8711 B(  1-C ,  2-C ) :   0.8443 B(  1-C ,  3-O ) :   1.2204 
B(  2-C ,  7-H ) :   0.8713 B(  2-C ,  8-H ) :   0.8713 B(  2-C ,  9-H ) :   0.9035 



                *******************************************
                * RELAXED MP2 DENSITY POPULATION ANALYSIS *
                *******************************************

------------------------------------------------------------------------------
                           ORCA POPULATION ANALYSIS
------------------------------------------------------------------------------
Input electron density              ... acetone_MP2_aug-cc-pVTZ_OPT.pmp2re
BaseName (.gbw .S,...)              ... acetone_MP2_aug-cc-pVTZ_OPT

                    ********************************
                    * MULLIKEN POPULATION ANALYSIS *
                    ********************************

-----------------------
MULLIKEN ATOMIC CHARGES
-----------------------
   0 C :   -0.840816
   1 C :    0.425896
   2 C :   -0.841221
   3 O :   -0.628459
   4 H :    0.295465
   5 H :    0.323489
   6 H :    0.323293
   7 H :    0.323352
   8 H :    0.323420
   9 H :    0.295580
Sum of atomic charges:   -0.0000000

--------------------------------
MULLIKEN REDUCED ORBITAL CHARGES
--------------------------------
  0 C s       :     3.203288  s :     3.203288
      pz      :     1.107495  p :     3.474092
      px      :     1.272017
      py      :     1.094579
      dz2     :     0.015468  d :     0.155393
      dxz     :     0.050759
      dyz     :     0.025838
      dx2y2   :     0.047609
      dxy     :     0.015719
      f0      :     0.000270  f :     0.008043
      f+1     :     0.001920
      f-1     :    -0.000342
      f+2     :     0.003949
      f-2     :    -0.000160
      f+3     :     0.000335
      f-3     :     0.002071
  1 C s       :     3.261428  s :     3.261428
      pz      :     0.770298  p :     2.167058
      px      :     0.699676
      py      :     0.697084
      dz2     :     0.017042  d :     0.141133
      dxz     :     0.037622
      dyz     :     0.034035
      dx2y2   :     0.054875
      dxy     :    -0.002442
      f0      :     0.002585  f :     0.004485
      f+1     :    -0.000039
      f-1     :     0.000080
      f+2     :     0.000334
      f-2     :    -0.002175
      f+3     :     0.002370
      f-3     :     0.001331
  2 C s       :     3.203519  s :     3.203519
      pz      :     1.148541  p :     3.474206
      px      :     1.066430
      py      :     1.259234
      dz2     :     0.014528  d :     0.155441
      dxz     :     0.034274
      dyz     :     0.046164
      dx2y2   :     0.042990
      dxy     :     0.017485
      f0      :     0.000388  f :     0.008055
      f+1     :     0.000317
      f-1     :     0.001226
      f+2     :     0.003737
      f-2     :     0.001290
      f+3     :     0.000814
      f-3     :     0.000283
  3 O s       :     4.015132  s :     4.015132
      pz      :     1.633911  p :     4.523789
      px      :     1.447837
      py      :     1.442040
      dz2     :     0.009365  d :     0.080070
      dxz     :     0.018205
      dyz     :     0.013795
      dx2y2   :     0.025051
      dxy     :     0.013654
      f0      :     0.001520  f :     0.009468
      f+1     :     0.000879
      f-1     :     0.000781
      f+2     :     0.000875
      f-2     :     0.001751
      f+3     :     0.002316
      f-3     :     0.001346
  4 H s       :     0.642162  s :     0.642162
      pz      :     0.022656  p :     0.057024
      px      :     0.017820
      py      :     0.016547
      dz2     :     0.001244  d :     0.005349
      dxz     :     0.000343
      dyz     :     0.000997
      dx2y2   :     0.000439
      dxy     :     0.002326
  5 H s       :     0.621998  s :     0.621998
      pz      :     0.010965  p :     0.048599
      px      :     0.018405
      py      :     0.019230
      dz2     :     0.000654  d :     0.005914
      dxz     :     0.000946
      dyz     :     0.001802
      dx2y2   :     0.000385
      dxy     :     0.002128
  6 H s       :     0.622147  s :     0.622147
      pz      :     0.018644  p :     0.048631
      px      :     0.016289
      py      :     0.013698
      dz2     :     0.001717  d :     0.005929
      dxz     :    -0.000936
      dyz     :     0.002680
      dx2y2   :     0.000886
      dxy     :     0.001581
  7 H s       :     0.622185  s :     0.622185
      pz      :     0.018564  p :     0.048540
      px      :     0.014678
      py      :     0.015298
      dz2     :     0.001132  d :     0.005923
      dxz     :     0.002081
      dyz     :    -0.000063
      dx2y2   :     0.001028
      dxy     :     0.001744
  8 H s       :     0.621951  s :     0.621951
      pz      :     0.011291  p :     0.048704
      px      :     0.018766
      py      :     0.018647
      dz2     :     0.001685  d :     0.005925
      dxz     :     0.000313
      dyz     :     0.001163
      dx2y2   :     0.001346
      dxy     :     0.001419
  9 H s       :     0.642026  s :     0.642026
      pz      :     0.023120  p :     0.057039
      px      :     0.015296
      py      :     0.018624
      dz2     :     0.001898  d :     0.005355
      dxz     :     0.001428
      dyz     :    -0.000764
      dx2y2   :     0.001220
      dxy     :     0.001573


                     *******************************
                     * LOEWDIN POPULATION ANALYSIS *
                     *******************************

----------------------
LOEWDIN ATOMIC CHARGES
----------------------
   0 C :    0.555187
   1 C :   -0.550841
   2 C :    0.555326
   3 O :    0.496941
   4 H :   -0.184040
   5 H :   -0.172234
   6 H :   -0.171934
   7 H :   -0.172118
   8 H :   -0.172283
   9 H :   -0.184004

-------------------------------
LOEWDIN REDUCED ORBITAL CHARGES
-------------------------------
  0 C s       :     2.464124  s :     2.464124
      pz      :     0.758342  p :     2.296402
      px      :     0.779891
      py      :     0.758168
      dz2     :     0.057896  d :     0.499377
      dxz     :     0.139636
      dyz     :     0.126287
      dx2y2   :     0.123994
      dxy     :     0.051565
      f0      :     0.026376  f :     0.184910
      f+1     :     0.014133
      f-1     :     0.033944
      f+2     :     0.033855
      f-2     :     0.033085
      f+3     :     0.024475
      f-3     :     0.019041
  1 C s       :     2.498584  s :     2.498584
      pz      :     0.674743  p :     2.182506
      px      :     0.789237
      py      :     0.718525
      dz2     :     0.182206  d :     1.236510
      dxz     :     0.262207
      dyz     :     0.212024
      dx2y2   :     0.315434
      dxy     :     0.264639
      f0      :     0.062054  f :     0.633241
      f+1     :     0.099139
      f-1     :     0.065250
      f+2     :     0.036425
      f-2     :     0.143658
      f+3     :     0.112690
      f-3     :     0.114025
  2 C s       :     2.464128  s :     2.464128
      pz      :     0.762904  p :     2.296370
      px      :     0.757159
      py      :     0.776306
      dz2     :     0.051679  d :     0.499308
      dxz     :     0.134725
      dyz     :     0.125581
      dx2y2   :     0.127475
      dxy     :     0.059848
      f0      :     0.021335  f :     0.184868
      f+1     :     0.037767
      f-1     :     0.010389
      f+2     :     0.033629
      f-2     :     0.027478
      f+3     :     0.023163
      f-3     :     0.031107
  3 O s       :     3.201199  s :     3.201199
      pz      :     1.299548  p :     3.971938
      px      :     1.368947
      py      :     1.303443
      dz2     :     0.028765  d :     0.248390
      dxz     :     0.045569
      dyz     :     0.039894
      dx2y2   :     0.067690
      dxy     :     0.066473
      f0      :     0.010145  f :     0.081531
      f+1     :     0.008383
      f-1     :     0.005285
      f+2     :     0.002394
      f-2     :     0.015829
      f+3     :     0.020458
      f-3     :     0.019038
  4 H s       :     0.630252  s :     0.630252
      pz      :     0.101272  p :     0.321767
      px      :     0.134732
      py      :     0.085762
      dz2     :     0.038792  d :     0.232021
      dxz     :     0.055980
      dyz     :     0.038039
      dx2y2   :     0.049968
      dxy     :     0.049243
  5 H s       :     0.621265  s :     0.621265
      pz      :     0.101581  p :     0.324256
      px      :     0.090178
      py      :     0.132497
      dz2     :     0.028128  d :     0.226713
      dxz     :     0.032231
      dyz     :     0.065579
      dx2y2   :     0.046496
      dxy     :     0.054279
  6 H s       :     0.621226  s :     0.621226
      pz      :     0.106274  p :     0.324091
      px      :     0.128561
      py      :     0.089257
      dz2     :     0.046009  d :     0.226616
      dxz     :     0.047828
      dyz     :     0.047575
      dx2y2   :     0.048569
      dxy     :     0.036635
  7 H s       :     0.621224  s :     0.621224
      pz      :     0.099421  p :     0.324206
      px      :     0.087930
      py      :     0.136855
      dz2     :     0.033962  d :     0.226688
      dxz     :     0.036561
      dyz     :     0.058415
      dx2y2   :     0.048812
      dxy     :     0.048937
  8 H s       :     0.621272  s :     0.621272
      pz      :     0.109669  p :     0.324287
      px      :     0.124270
      py      :     0.090348
      dz2     :     0.039048  d :     0.226724
      dxz     :     0.054794
      dyz     :     0.043144
      dx2y2   :     0.047223
      dxy     :     0.042515
  9 H s       :     0.630309  s :     0.630309
      pz      :     0.111010  p :     0.321717
      px      :     0.086444
      py      :     0.124264
      dz2     :     0.049655  d :     0.231978
      dxz     :     0.051088
      dyz     :     0.045706
      dx2y2   :     0.049014
      dxy     :     0.036515


                      *****************************
                      * MAYER POPULATION ANALYSIS *
                      *****************************

  NA   - Mulliken gross atomic population
  ZA   - Total nuclear charge
  QA   - Mulliken gross atomic charge
  VA   - Mayer's total valence
  BVA  - Mayer's bonded valence
  FA   - Mayer's free valence

  ATOM       NA         ZA         QA         VA         BVA        FA
  0 C      6.8408     6.0000    -0.8408     3.8980     3.5803     0.3176
  1 C      5.5741     6.0000     0.4259     3.3990     3.1013     0.2977
  2 C      6.8412     6.0000    -0.8412     3.8982     3.5806     0.3177
  3 O      8.6285     8.0000    -0.6285     1.8720     1.4089     0.4632
  4 H      0.7045     1.0000     0.2955     1.0489     1.0010     0.0478
  5 H      0.6765     1.0000     0.3235     0.9808     0.9315     0.0493
  6 H      0.6767     1.0000     0.3233     0.9811     0.9317     0.0493
  7 H      0.6766     1.0000     0.3234     0.9808     0.9315     0.0493
  8 H      0.6766     1.0000     0.3234     0.9812     0.9319     0.0493
  9 H      0.7044     1.0000     0.2956     1.0488     1.0009     0.0478

  Mayer bond orders larger than 0.100000
B(  0-C ,  1-C ) :   0.8726 B(  0-C ,  4-H ) :   0.8961 B(  0-C ,  5-H ) :   0.8513 
B(  0-C ,  6-H ) :   0.8511 B(  1-C ,  2-C ) :   0.8727 B(  1-C ,  3-O ) :   1.3170 
B(  2-C ,  7-H ) :   0.8513 B(  2-C ,  8-H ) :   0.8512 B(  2-C ,  9-H ) :   0.8961 



----------------------------------
MP2 DERIVATIVE INTEGRAL GENERATION
----------------------------------


Input Wavefunction Amplitudes       ... acetone_MP2_aug-cc-pVTZ_OPT.mp2tsaa.tmp
Input Correlated Electron Density   ... acetone_MP2_aug-cc-pVTZ_OPT.pmp2re
Input Energy Weighted Density       ... acetone_MP2_aug-cc-pVTZ_OPT.wmp2.tmp
Input SCF Electron Density          ... acetone_MP2_aug-cc-pVTZ_OPT.scfp

One-Electron Terms    ...
                        ... One-Electron Terms done
Prescreening matrices              ... done

Batch handling in the gradient evaluation:
Memory available                      ... 1000.0 MB
Memory per occupied orbital in Q2     ...    9.5 MB
Memory per occupied orbital in Q3     ...    0.1 MB
Total memory requirement per |i>      ...    9.6 MB
Max. Number of orbitals possible      ...    104
[...]
      pz      :     0.108745  p :     0.314078
      px      :     0.082646
      py      :     0.122687
      dz2     :     0.049176  d :     0.231342
      dxz     :     0.051755
      dyz     :     0.045688
      dx2y2   :     0.049028
      dxy     :     0.035696


                      *****************************
                      * MAYER POPULATION ANALYSIS *
                      *****************************

  NA   - Mulliken gross atomic population
  ZA   - Total nuclear charge
  QA   - Mulliken gross atomic charge
  VA   - Mayer's total valence
  BVA  - Mayer's bonded valence
  FA   - Mayer's free valence

  ATOM       NA         ZA         QA         VA         BVA        FA
  0 C      6.7872     6.0000    -0.7872     3.9078     3.5868     0.3211
  1 C      5.5219     6.0000     0.4781     3.2324     2.9208     0.3117
  2 C      6.7872     6.0000    -0.7872     3.9078     3.5868     0.3211
  3 O      8.7078     8.0000    -0.7078     1.7614     1.2773     0.4840
  4 H      0.7134     1.0000     0.2866     1.0589     1.0110     0.0479
  5 H      0.6922     1.0000     0.3078     0.9947     0.9446     0.0501
  6 H      0.6924     1.0000     0.3076     0.9948     0.9447     0.0501
  7 H      0.6923     1.0000     0.3077     0.9947     0.9445     0.0501
  8 H      0.6923     1.0000     0.3077     0.9949     0.9448     0.0501
  9 H      0.7134     1.0000     0.2866     1.0589     1.0110     0.0479

  Mayer bond orders larger than 0.100000
B(  0-C ,  1-C ) :   0.8407 B(  0-C ,  4-H ) :   0.9040 B(  0-C ,  5-H ) :   0.8714 
B(  0-C ,  6-H ) :   0.8713 B(  1-C ,  2-C ) :   0.8407 B(  1-C ,  3-O ) :   1.2146 
B(  2-C ,  7-H ) :   0.8714 B(  2-C ,  8-H ) :   0.8714 B(  2-C ,  9-H ) :   0.9040 



                *******************************************
                * RELAXED MP2 DENSITY POPULATION ANALYSIS *
                *******************************************

------------------------------------------------------------------------------
                           ORCA POPULATION ANALYSIS
------------------------------------------------------------------------------
Input electron density              ... acetone_MP2_aug-cc-pVTZ_OPT.pmp2re
BaseName (.gbw .S,...)              ... acetone_MP2_aug-cc-pVTZ_OPT

                    ********************************
                    * MULLIKEN POPULATION ANALYSIS *
                    ********************************

-----------------------
MULLIKEN ATOMIC CHARGES
-----------------------
   0 C :   -0.839907
   1 C :    0.418132
   2 C :   -0.839910
   3 O :   -0.628305
   4 H :    0.296019
   5 H :    0.324576
   6 H :    0.324399
   7 H :    0.324487
   8 H :    0.324486
   9 H :    0.296023
Sum of atomic charges:   -0.0000000

--------------------------------
MULLIKEN REDUCED ORBITAL CHARGES
--------------------------------
  0 C s       :     3.201828  s :     3.201828
      pz      :     1.108062  p :     3.474602
      px      :     1.273496
      py      :     1.093044
      dz2     :     0.015236  d :     0.155440
      dxz     :     0.050565
      dyz     :     0.026300
      dx2y2   :     0.047621
      dxy     :     0.015718
      f0      :     0.000261  f :     0.008036
      f+1     :     0.001853
      f-1     :    -0.000304
      f+2     :     0.004026
      f-2     :    -0.000205
      f+3     :     0.000338
      f-3     :     0.002067
  1 C s       :     3.263749  s :     3.263749
      pz      :     0.774765  p :     2.174405
      px      :     0.700995
      py      :     0.698645
      dz2     :     0.016953  d :     0.139294
      dxz     :     0.037162
      dyz     :     0.033658
      dx2y2   :     0.054410
      dxy     :    -0.002889
      f0      :     0.002659  f :     0.004420
      f+1     :    -0.000100
      f-1     :    -0.000010
      f+2     :     0.000299
      f-2     :    -0.002027
      f+3     :     0.002434
      f-3     :     0.001166
  2 C s       :     3.201832  s :     3.201832
      pz      :     1.149951  p :     3.474601
      px      :     1.063889
      py      :     1.260761
      dz2     :     0.014528  d :     0.155441
      dxz     :     0.034615
      dyz     :     0.045821
      dx2y2   :     0.043310
      dxy     :     0.017167
      f0      :     0.000341  f :     0.008036
      f+1     :     0.000362
      f-1     :     0.001182
      f+2     :     0.003803
      f-2     :     0.001243
      f+3     :     0.000802
      f-3     :     0.000303
  3 O s       :     4.012685  s :     4.012685
      pz      :     1.635482  p :     4.527183
      px      :     1.448714
      py      :     1.442987
      dz2     :     0.009368  d :     0.079006
      dxz     :     0.017909
      dyz     :     0.013506
      dx2y2   :     0.024539
      dxy     :     0.013685
      f0      :     0.001505  f :     0.009430
      f+1     :     0.000884
      f-1     :     0.000789
      f+2     :     0.000873
      f-2     :     0.001725
      f+3     :     0.002298
      f-3     :     0.001356
  4 H s       :     0.640923  s :     0.640923
      pz      :     0.023004  p :     0.057651
      px      :     0.017747
      py      :     0.016899
      dz2     :     0.001255  d :     0.005406
      dxz     :     0.000311
      dyz     :     0.001051
      dx2y2   :     0.000470
      dxy     :     0.002320
  5 H s       :     0.620700  s :     0.620700
      pz      :     0.010675  p :     0.048829
      px      :     0.018429
      py      :     0.019724
      dz2     :     0.000619  d :     0.005895
      dxz     :     0.000996
      dyz     :     0.001780
      dx2y2   :     0.000376
      dxy     :     0.002123
  6 H s       :     0.620885  s :     0.620885
      pz      :     0.018933  p :     0.048816
      px      :     0.016249
      py      :     0.013634
      dz2     :     0.001670  d :     0.005899
      dxz     :    -0.000938
      dyz     :     0.002708
      dx2y2   :     0.000877
      dxy     :     0.001584
  7 H s       :     0.620831  s :     0.620831
      pz      :     0.018762  p :     0.048784
      px      :     0.014767
      py      :     0.015255
      dz2     :     0.001097  d :     0.005898
      dxz     :     0.002099
      dyz     :    -0.000041
      dx2y2   :     0.001017
      dxy     :     0.001727
  8 H s       :     0.620757  s :     0.620757
      pz      :     0.010974  p :     0.048861
      px      :     0.019226
      py      :     0.018661
      dz2     :     0.001664  d :     0.005896
      dxz     :     0.000269
      dyz     :     0.001212
      dx2y2   :     0.001340
      dxy     :     0.001412
  9 H s       :     0.640919  s :     0.640919
      pz      :     0.023423  p :     0.057652
      px      :     0.015566
      py      :     0.018663
      dz2     :     0.001906  d :     0.005407
      dxz     :     0.001475
      dyz     :    -0.000786
      dx2y2   :     0.001246
      dxy     :     0.001565


                     *******************************
                     * LOEWDIN POPULATION ANALYSIS *
                     *******************************

----------------------
LOEWDIN ATOMIC CHARGES
----------------------
   0 C :    0.555210
   1 C :   -0.548363
   2 C :    0.555212
   3 O :    0.492312
   4 H :   -0.182910
   5 H :   -0.172175
   6 H :   -0.172100
   7 H :   -0.172152
   8 H :   -0.172123
   9 H :   -0.182910

-------------------------------
LOEWDIN REDUCED ORBITAL CHARGES
-------------------------------
  0 C s       :     2.462654  s :     2.462654
      pz      :     0.757923  p :     2.294326
      px      :     0.779180
      py      :     0.757224
      dz2     :     0.058148  d :     0.501775
      dxz     :     0.140202
      dyz     :     0.127146
      dx2y2   :     0.123952
      dxy     :     0.052327
      f0      :     0.026551  f :     0.186036
      f+1     :     0.014072
      f-1     :     0.034245
      f+2     :     0.034040
      f-2     :     0.033434
      f+3     :     0.024626
      f-3     :     0.019068
  1 C s       :     2.497468  s :     2.497468
      pz      :     0.675783  p :     2.179543
      px      :     0.787185
      py      :     0.716575
      dz2     :     0.182913  d :     1.234959
      dxz     :     0.261770
      dyz     :     0.211145
      dx2y2   :     0.314290
      dxy     :     0.264840
      f0      :     0.062084  f :     0.636393
      f+1     :     0.100095
      f-1     :     0.065682
      f+2     :     0.036504
      f-2     :     0.144355
      f+3     :     0.113006
      f-3     :     0.114667
  2 C s       :     2.462654  s :     2.462654
      pz      :     0.762520  p :     2.294326
      px      :     0.756253
      py      :     0.775552
      dz2     :     0.052426  d :     0.501774
      dxz     :     0.135336
      dyz     :     0.125788
      dx2y2   :     0.128103
      dxy     :     0.060121
      f0      :     0.021376  f :     0.186035
      f+1     :     0.038277
      f-1     :     0.010396
      f+2     :     0.033803
      f-2     :     0.027623
      f+3     :     0.023137
      f-3     :     0.031423
  3 O s       :     3.207057  s :     3.207057
      pz      :     1.303979  p :     3.976046
      px      :     1.368359
      py      :     1.303707
      dz2     :     0.028525  d :     0.244692
      dxz     :     0.044748
      dyz     :     0.039147
      dx2y2   :     0.066441
      dxy     :     0.065831
      f0      :     0.009946  f :     0.079894
      f+1     :     0.008236
      f-1     :     0.005179
      f+2     :     0.002356
      f-2     :     0.015499
      f+3     :     0.020041
      f-3     :     0.018635
  4 H s       :     0.630025  s :     0.630025
      pz      :     0.101234  p :     0.320986
      px      :     0.134173
      py      :     0.085578
      dz2     :     0.039071  d :     0.231900
      dxz     :     0.055741
      dyz     :     0.038298
      dx2y2   :     0.049790
      dxy     :     0.049000
  5 H s       :     0.620272  s :     0.620272
      pz      :     0.102192  p :     0.324395
      px      :     0.090018
      py      :     0.132185
      dz2     :     0.028782  d :     0.227508
      dxz     :     0.032997
      dyz     :     0.065327
      dx2y2   :     0.046629
      dxy     :     0.053772
  6 H s       :     0.620220  s :     0.620220
      pz      :     0.106011  p :     0.324372
      px      :     0.128980
      py      :     0.089381
      dz2     :     0.045675  d :     0.227508
      dxz     :     0.048402
      dyz     :     0.047337
      dx2y2   :     0.048846
      dxy     :     0.037249
  7 H s       :     0.620250  s :     0.620250
      pz      :     0.099219  p :     0.324389
      px      :     0.087962
      py      :     0.137209
      dz2     :     0.033679  d :     0.227513
      dxz     :     0.036475
      dyz     :     0.058951
      dx2y2   :     0.049041
      dxy     :     0.049367
  8 H s       :     0.620241  s :     0.620241
      pz      :     0.110344  p :     0.324378
      px      :     0.124017
      py      :     0.090017
      dz2     :     0.039918  d :     0.227504
      dxz     :     0.054511
      dyz     :     0.043788
      dx2y2   :     0.047291
      dxy     :     0.041996
  9 H s       :     0.630026  s :     0.630026
      pz      :     0.110843  p :     0.320985
      px      :     0.086325
      py      :     0.123817
      dz2     :     0.049794  d :     0.231899
      dxz     :     0.051157
      dyz     :     0.045641
      dx2y2   :     0.048892
      dxy     :     0.036415


                      *****************************
                      * MAYER POPULATION ANALYSIS *
                      *****************************

  NA   - Mulliken gross atomic population
  ZA   - Total nuclear charge
  QA   - Mulliken gross atomic charge
  VA   - Mayer's total valence
  BVA  - Mayer's bonded valence
  FA   - Mayer's free valence

  ATOM       NA         ZA         QA         VA         BVA        FA
  0 C      6.8399     6.0000    -0.8399     3.9007     3.5840     0.3167
  1 C      5.5819     6.0000     0.4181     3.3925     3.0935     0.2990
  2 C      6.8399     6.0000    -0.8399     3.9008     3.5840     0.3167
  3 O      8.6283     8.0000    -0.6283     1.8777     1.4102     0.4675
  4 H      0.7040     1.0000     0.2960     1.0497     1.0018     0.0478
  5 H      0.6754     1.0000     0.3246     0.9816     0.9324     0.0492
  6 H      0.6756     1.0000     0.3244     0.9818     0.9326     0.0492
  7 H      0.6755     1.0000     0.3245     0.9816     0.9324     0.0492
  8 H      0.6755     1.0000     0.3245     0.9818     0.9326     0.0492
  9 H      0.7040     1.0000     0.2960     1.0497     1.0018     0.0478

  Mayer bond orders larger than 0.100000
B(  0-C ,  1-C ) :   0.8705 B(  0-C ,  4-H ) :   0.8968 B(  0-C ,  5-H ) :   0.8513 
B(  0-C ,  6-H ) :   0.8512 B(  1-C ,  2-C ) :   0.8705 B(  1-C ,  3-O ) :   1.3146 
B(  2-C ,  7-H ) :   0.8512 B(  2-C ,  8-H ) :   0.8512 B(  2-C ,  9-H ) :   0.8968 



----------------------------------
MP2 DERIVATIVE INTEGRAL GENERATION
----------------------------------


Input Wavefunction Amplitudes       ... acetone_MP2_aug-cc-pVTZ_OPT.mp2tsaa.tmp
Input Correlated Electron Density   ... acetone_MP2_aug-cc-pVTZ_OPT.pmp2re
Input Energy Weighted Density       ... acetone_MP2_aug-cc-pVTZ_OPT.wmp2.tmp
Input SCF Electron Density          ... acetone_MP2_aug-cc-pVTZ_OPT.scfp

One-Electron Terms    ...
                        ... One-Electron Terms done
Prescreening matrices              ... done

Batch handling in the gradient evaluation:
Memory available                      ... 1000.0 MB
Memory per occupied orbital in Q2     ...    9.5 MB
Memory per occupied orbital in Q3     ...    0.1 MB
Total memory requirement per |i>      ...    9.6 MB
Max. Number of orbitals possible      ...    104
Number of orbitals treated per batch  ...     12
Number of batches to be done          ...      1
Batch   0: i=    4 ...    15

---------------------------------------
MP2 TOTAL ENERGY:     -192.790142659 Eh
---------------------------------------

-----------------------------------
NORM OF THE MP2 GRADIENT:  0.000120
-----------------------------------

-------------------------   --------------------
FINAL SINGLE POINT ENERGY      -192.790142658808
-------------------------   --------------------

                                *** OPTIMIZATION RUN DONE ***

                            ***************************************
                            *     ORCA property calculations      *
                            ***************************************

                                    ---------------------
                                    Active property flags
                                    ---------------------
   (+) Dipole Moment


------------------------------------------------------------------------------
                       ORCA ELECTRIC PROPERTIES CALCULATION
------------------------------------------------------------------------------

Dipole Moment Calculation                       ... on
Quadrupole Moment Calculation                   ... off
Polarizability Calculation                      ... off
GBWName                                         ... acetone_MP2_aug-cc-pVTZ_OPT.gbw
Electron density file                           ... acetone_MP2_aug-cc-pVTZ_OPT.scfp
The origin for moment calculation is the CENTER OF MASS  = ( 0.333816, -0.606175 -0.606117)

-------------
DIPOLE MOMENT
-------------
                                X             Y             Z
Electronic contribution:     -2.85812       2.34566      -0.36502
Nuclear contribution   :      3.91043      -3.20949       0.49928
                        -----------------------------------------
Total Dipole Moment    :      1.05231      -0.86383       0.13425
                        -----------------------------------------
Magnitude (a.u.)       :      1.36806
Magnitude (Debye)      :      3.47732



--------------------
Rotational spectrum 
--------------------
 
Rotational constants in cm-1:     0.337089     0.287076     0.164424 
Rotational constants in MHz : 10105.674786  8606.318847  4929.316729 

 Dipole components along the rotational axes: 
x,y,z [a.u.] :     0.000000     1.368056     0.000061 
x,y,z [Debye]:     0.000001     3.477322     0.000156 

 

                         *** MP2 UNRELAXED DENSITY ***

------------------------------------------------------------------------------
                       ORCA ELECTRIC PROPERTIES CALCULATION
------------------------------------------------------------------------------

Dipole Moment Calculation                       ... on
Quadrupole Moment Calculation                   ... off
Polarizability Calculation                      ... off
GBWName                                         ... acetone_MP2_aug-cc-pVTZ_OPT.gbw
Electron density file                           ... acetone_MP2_aug-cc-pVTZ_OPT.pmp2ur
The origin for moment calculation is the CENTER OF MASS  = ( 0.333816, -0.606175 -0.606117)

-------------
DIPOLE MOMENT
-------------
                                X             Y             Z
Electronic contribution:     -2.89657       2.37723      -0.36992
Nuclear contribution   :      3.91043      -3.20949       0.49928
                        -----------------------------------------
Total Dipole Moment    :      1.01386      -0.83226       0.12935
                        -----------------------------------------
Magnitude (a.u.)       :      1.31807
Magnitude (Debye)      :      3.35026



--------------------
Rotational spectrum 
--------------------
 
Rotational constants in cm-1:     0.337089     0.287076     0.164424 
Rotational constants in MHz : 10105.674786  8606.318847  4929.316729 

 Dipole components along the rotational axes: 
x,y,z [a.u.] :     0.000000     1.318067     0.000069 
x,y,z [Debye]:     0.000001     3.350259     0.000176 

 

                           *** MP2 RELAXED DENSITY ***

------------------------------------------------------------------------------
                       ORCA ELECTRIC PROPERTIES CALCULATION
------------------------------------------------------------------------------

Dipole Moment Calculation                       ... on
Quadrupole Moment Calculation                   ... off
Polarizability Calculation                      ... off
GBWName                                         ... acetone_MP2_aug-cc-pVTZ_OPT.gbw
Electron density file                           ... acetone_MP2_aug-cc-pVTZ_OPT.pmp2re
The origin for moment calculation is the CENTER OF MASS  = ( 0.333816, -0.606175 -0.606117)

-------------
DIPOLE MOMENT
-------------
                                X             Y             Z
Electronic contribution:     -3.00791       2.46866      -0.38410
Nuclear contribution   :      3.91043      -3.20949       0.49928
                        -----------------------------------------
Total Dipole Moment    :      0.90252      -0.74083       0.11518
                        -----------------------------------------
Magnitude (a.u.)       :      1.17330
Magnitude (Debye)      :      2.98230



--------------------
Rotational spectrum 
--------------------
 
Rotational constants in cm-1:     0.337089     0.287076     0.164424 
Rotational constants in MHz : 10105.674786  8606.318847  4929.316729 

 Dipole components along the rotational axes: 
x,y,z [a.u.] :    -0.000000     1.173302     0.000103 
x,y,z [Debye]:    -0.000001     2.982296     0.000262 

 

Timings for individual modules:

Sum of individual times         ...      980.529 sec (=  16.342 min)
GTO integral calculation        ...        6.063 sec (=   0.101 min)   0.6 %
SCF iterations                  ...      116.627 sec (=   1.944 min)  11.9 %
MP2 module                      ...      857.466 sec (=  14.291 min)  87.4 %
Geometry relaxation             ...        0.372 sec (=   0.006 min)   0.0 %
                             ****ORCA TERMINATED NORMALLY****
TOTAL RUN TIME: 0 days 0 hours 16 minutes 22 seconds 358 msec
