
                                 *****************
                                 * O   R   C   A *
                                 *****************

                                            #,                                       
                                            ###                                      
                                            ####                                     
                                            #####                                    
                                            ######                                   
                                           ########,                                 
                                     ,,################,,,,,                         
                               ,,#################################,,                 
                          ,,##########################################,,             
                       ,#########################################, ''#####,          
                    ,#############################################,,   '####,        
                  ,##################################################,,,,####,       
                ,###########''''           ''''###############################       
              ,#####''   ,,,,##########,,,,          '''####'''          '####       
            ,##' ,,,,###########################,,,                        '##       
           ' ,,###''''                  '''############,,,                           
         ,,##''                                '''############,,,,        ,,,,,,###''
      ,#''                                            '''#######################'''  
     '                                                          ''''####''''         
             ,#######,   #######,   ,#######,      ##                                
            ,#'     '#,  ##    ##  ,#'     '#,    #''#        ######   ,####,        
            ##       ##  ##   ,#'  ##            #'  '#       #        #'  '#        
            ##       ##  #######   ##           ,######,      #####,   #    #        
            '#,     ,#'  ##    ##  '#,     ,#' ,#      #,         ##   #,  ,#        
             '#######'   ##     ##  '#######'  #'      '#     #####' # '####'        



                  #######################################################
                  #                        -***-                        #
                  #          Department of theory and spectroscopy      #
                  #    Directorship and core code : Frank Neese         #
                  #        Max Planck Institute fuer Kohlenforschung    #
                  #                Kaiser Wilhelm Platz 1               #
                  #                 D-45470 Muelheim/Ruhr               #
                  #                      Germany                        #
                  #                                                     #
                  #                  All rights reserved                #
                  #                        -***-                        #
                  #######################################################


                         Program Version 5.0.1 -  RELEASE  -


 With contributions from (in alphabetic order):
   Daniel Aravena         : Magnetic Suceptibility
   Michael Atanasov       : Ab Initio Ligand Field Theory (pilot matlab implementation)
   Alexander A. Auer      : GIAO ZORA, VPT2 properties, NMR spectrum
   Ute Becker             : Parallelization
   Giovanni Bistoni       : ED, misc. LED, open-shell LED, HFLD
   Martin Brehm           : Molecular dynamics
   Dmytro Bykov           : SCF Hessian
   Vijay G. Chilkuri      : MRCI spin determinant printing, contributions to CSF-ICE
   Dipayan Datta          : RHF DLPNO-CCSD density
   Achintya Kumar Dutta   : EOM-CC, STEOM-CC
   Dmitry Ganyushin       : Spin-Orbit,Spin-Spin,Magnetic field MRCI
   Miquel Garcia          : C-PCM and meta-GGA Hessian, CC/C-PCM, Gaussian charge scheme
   Yang Guo               : DLPNO-NEVPT2, F12-NEVPT2, CIM, IAO-localization
   Andreas Hansen         : Spin unrestricted coupled pair/coupled cluster methods
   Benjamin Helmich-Paris : MC-RPA, TRAH-SCF, COSX integrals
   Lee Huntington         : MR-EOM, pCC
   Robert Izsak           : Overlap fitted RIJCOSX, COSX-SCS-MP3, EOM
   Marcus Kettner         : VPT2
   Christian Kollmar      : KDIIS, OOCD, Brueckner-CCSD(T), CCSD density, CASPT2, CASPT2-K
   Simone Kossmann        : Meta GGA functionals, TD-DFT gradient, OOMP2, MP2 Hessian
   Martin Krupicka        : Initial AUTO-CI
   Lucas Lang             : DCDCAS
   Marvin Lechner         : AUTO-CI (C++ implementation), FIC-MRCC
   Dagmar Lenk            : GEPOL surface, SMD
   Dimitrios Liakos       : Extrapolation schemes; Compound Job, initial MDCI parallelization
   Dimitrios Manganas     : Further ROCIS development; embedding schemes
   Dimitrios Pantazis     : SARC Basis sets
   Anastasios Papadopoulos: AUTO-CI, single reference methods and gradients
   Taras Petrenko         : DFT Hessian,TD-DFT gradient, ASA, ECA, R-Raman, ABS, FL, XAS/XES, NRVS
   Peter Pinski           : DLPNO-MP2, DLPNO-MP2 Gradient
   Christoph Reimann      : Effective Core Potentials
   Marius Retegan         : Local ZFS, SOC
   Christoph Riplinger    : Optimizer, TS searches, QM/MM, DLPNO-CCSD(T), (RO)-DLPNO pert. Triples
   Tobias Risthaus        : Range-separated hybrids, TD-DFT gradient, RPA, STAB
   Michael Roemelt        : Original ROCIS implementation
   Masaaki Saitow         : Open-shell DLPNO-CCSD energy and density
   Barbara Sandhoefer     : DKH picture change effects
   Avijit Sen             : IP-ROCIS
   Kantharuban Sivalingam : CASSCF convergence, NEVPT2, FIC-MRCI
   Bernardo de Souza      : ESD, SOC TD-DFT
   Georgi Stoychev        : AutoAux, RI-MP2 NMR, DLPNO-MP2 response
   Willem Van den Heuvel  : Paramagnetic NMR
   Boris Wezisla          : Elementary symmetry handling
   Frank Wennmohs         : Technical directorship


 We gratefully acknowledge several colleagues who have allowed us to
 interface, adapt or use parts of their codes:
   Stefan Grimme, W. Hujo, H. Kruse, P. Pracht,  : VdW corrections, initial TS optimization,
                  C. Bannwarth, S. Ehlert          DFT functionals, gCP, sTDA/sTD-DF
   Ed Valeev, F. Pavosevic, A. Kumar             : LibInt (2-el integral package), F12 methods
   Garnet Chan, S. Sharma, J. Yang, R. Olivares  : DMRG
   Ulf Ekstrom                                   : XCFun DFT Library
   Mihaly Kallay                                 : mrcc  (arbitrary order and MRCC methods)
   Jiri Pittner, Ondrej Demel                    : Mk-CCSD
   Frank Weinhold                                : gennbo (NPA and NBO analysis)
   Christopher J. Cramer and Donald G. Truhlar   : smd solvation model
   Lars Goerigk                                  : TD-DFT with DH, B97 family of functionals
   V. Asgeirsson, H. Jonsson                     : NEB implementation
   FAccTs GmbH                                   : IRC, NEB, NEB-TS, DLPNO-Multilevel, CI-OPT
                                                   MM, QMMM, 2- and 3-layer-ONIOM, Crystal-QMMM,
                                                   LR-CPCM, SF, NACMEs, symmetry and pop. for TD-DFT,
                                                   nearIR, NL-DFT gradient (VV10), updates on ESD,
                                                   ML-optimized integration grids
   S Lehtola, MJT Oliveira, MAL Marques          : LibXC Library
   Liviu Ungur et al                             : ANISO software


 Your calculation uses the libint2 library for the computation of 2-el integrals
 For citations please refer to: http://libint.valeyev.net

 Your ORCA version has been built with support for libXC version: 5.1.0
 For citations please refer to: https://tddft.org/programs/libxc/

 This ORCA versions uses:
   CBLAS   interface :  Fast vector & matrix operations
   LAPACKE interface :  Fast linear algebra routines
   SCALAPACK package :  Parallel linear algebra routines
   Shared memory     :  Shared parallel matrices
   BLAS/LAPACK       :  OpenBLAS 0.3.15  USE64BITINT DYNAMIC_ARCH NO_AFFINITY Zen SINGLE_THREADED
        Core in use  :  Zen
   Copyright (c) 2011-2014, The OpenBLAS Project




***************************************
The coordinates will be read from file: acetone.xyz
***************************************


================================================================================

----- Orbital basis set information -----
Your calculation utilizes the basis: def2-TZVP
   F. Weigend and R. Ahlrichs, Phys. Chem. Chem. Phys. 7, 3297 (2005).

----- AuxJ basis set information -----
Your calculation utilizes the auxiliary basis: def2/J
   F. Weigend, Phys. Chem. Chem. Phys. 8, 1057 (2006).

================================================================================
                                        WARNINGS
                       Please study these warnings very carefully!
================================================================================


WARNING: Geometry Optimization
  ===> : Switching off AutoStart
         For restart on a previous wavefunction, please use MOREAD

INFO   : the flag for use of the SHARK integral package has been found!

================================================================================
                                       INPUT FILE
================================================================================
NAME = acetone_OPT.inp
|  1> 
|  2> %pal
|  3>   nprocs 6
|  4> end
|  5> %maxcore 2000
|  6> 
|  7> ! PBE0 def2-TZVP TightOPT Freq
|  8> ! RIJCOSX def2/J
|  9> 
| 10> * xyzfile 0 1 acetone.xyz
| 11> 
| 12> 
| 13>                          ****END OF INPUT****
================================================================================

                       *****************************
                       * Geometry Optimization Run *
                       *****************************

Geometry optimization settings:
Update method            Update   .... BFGS
Choice of coordinates    CoordSys .... Z-matrix Internals
Initial Hessian          InHess   .... Almoef's Model

Convergence Tolerances:
Energy Change            TolE     ....  1.0000e-06 Eh
Max. Gradient            TolMAXG  ....  1.0000e-04 Eh/bohr
RMS Gradient             TolRMSG  ....  3.0000e-05 Eh/bohr
Max. Displacement        TolMAXD  ....  1.0000e-03 bohr
RMS Displacement         TolRMSD  ....  6.0000e-04 bohr
Strict Convergence                ....  False
------------------------------------------------------------------------------
                        ORCA OPTIMIZATION COORDINATE SETUP
------------------------------------------------------------------------------

The optimization will be done in new redundant internal coordinates
Making redundant internal coordinates   ...  (new redundants) done
Evaluating the initial hessian          ...  (Almloef) done
Evaluating the coordinates              ...  done
Calculating the B-matrix                .... done
Calculating the G-matrix                .... done
Diagonalizing the G-matrix              .... done
The first mode is                       ....   12
The number of degrees of freedom        ....   24

    -----------------------------------------------------------------
                    Redundant Internal Coordinates


    -----------------------------------------------------------------
         Definition                    Initial Value    Approx d2E/dq
    -----------------------------------------------------------------
      1. B(C   1,C   0)                  1.4743         0.458443   
      2. B(C   2,C   1)                  1.4739         0.459075   
      3. B(O   3,C   1)                  1.2543         0.921363   
      4. B(H   4,C   0)                  1.0906         0.359268   
      5. B(H   5,C   0)                  1.0910         0.358840   
      6. B(H   6,C   0)                  1.0910         0.358839   
      7. B(H   7,C   2)                  1.0910         0.358822   
      8. B(H   8,C   2)                  1.0910         0.358816   
      9. B(H   9,C   2)                  1.0908         0.359049   
     10. A(H   5,C   0,H   6)          108.8509         0.290519   
     11. A(H   4,C   0,H   6)          108.6483         0.290574   
     12. A(C   1,C   0,H   4)          111.4050         0.335350   
     13. A(C   1,C   0,H   5)          109.6200         0.335283   
     14. A(C   1,C   0,H   6)          109.6210         0.335283   
     15. A(H   4,C   0,H   5)          108.6477         0.290574   
     16. A(C   2,C   1,O   3)          120.1164         0.438715   
     17. A(C   0,C   1,O   3)          120.0985         0.438606   
     18. A(C   0,C   1,C   2)          119.7851         0.390085   
     19. A(H   7,C   2,H   9)          108.6387         0.290544   
     20. A(C   1,C   2,H   9)          111.4008         0.335393   
     21. A(H   7,C   2,H   8)          108.8477         0.290514   
     22. A(C   1,C   2,H   8)          109.6334         0.335357   
     23. A(H   8,C   2,H   9)          108.6385         0.290543   
     24. A(C   1,C   2,H   7)          109.6335         0.335358   
     25. D(O   3,C   1,C   0,H   5)    120.2888         0.015495   
     26. D(O   3,C   1,C   0,H   4)      0.0010         0.015495   
     27. D(C   2,C   1,C   0,H   4)   -179.9998         0.015495   
     28. D(O   3,C   1,C   0,H   6)   -120.2883         0.015495   
     29. D(C   2,C   1,C   0,H   6)     59.7110         0.015495   
     30. D(C   2,C   1,C   0,H   5)    -59.7119         0.015495   
     31. D(H   7,C   2,C   1,C   0)     59.7177         0.015538   
     32. D(H   9,C   2,C   1,O   3)     -0.0003         0.015538   
     33. D(H   9,C   2,C   1,C   0)   -179.9995         0.015538   
     34. D(H   8,C   2,C   1,O   3)    120.2822         0.015538   
     35. D(H   8,C   2,C   1,C   0)    -59.7170         0.015538   
     36. D(H   7,C   2,C   1,O   3)   -120.2830         0.015538   
    -----------------------------------------------------------------

Number of atoms                         .... 10
Number of degrees of freedom            .... 36

         *************************************************************
         *                GEOMETRY OPTIMIZATION CYCLE   1            *
         *************************************************************
---------------------------------
CARTESIAN COORDINATES (ANGSTROEM)
---------------------------------
  C      0.105790   -1.354390    0.699340
  C      0.144890   -0.294920   -0.325100
  C      1.321750   -0.168840   -1.203440
  O     -0.820290    0.496500   -0.448650
  H     -0.823530   -1.322860    1.269290
  H      0.187940   -2.330850    0.219800
  H      0.942110   -1.228650    1.388500
  H      1.458330   -1.092260   -1.768110
  H      2.212490    0.009940   -0.599420
  H      1.206460    0.656420   -1.907350

----------------------------
CARTESIAN COORDINATES (A.U.)
----------------------------
  NO LB      ZA    FRAG     MASS         X           Y           Z
   0 C     6.0000    0    12.011    0.199914   -2.559426    1.321561
   1 C     6.0000    0    12.011    0.273802   -0.557318   -0.614350
   2 C     6.0000    0    12.011    2.497746   -0.319061   -2.274172
   3 O     8.0000    0    15.999   -1.550123    0.938249   -0.847826
   4 H     1.0000    0     1.008   -1.556246   -2.499843    2.398610
   5 H     1.0000    0     1.008    0.355155   -4.404668    0.415362
   6 H     1.0000    0     1.008    1.780330   -2.321812    2.623885
   7 H     1.0000    0     1.008    2.755844   -2.064072   -3.341244
   8 H     1.0000    0     1.008    4.181000    0.018784   -1.132740
   9 H     1.0000    0     1.008    2.279879    1.240454   -3.604369

--------------------------------
INTERNAL COORDINATES (ANGSTROEM)
--------------------------------
 C      0   0   0     0.000000000000     0.00000000     0.00000000
 C      1   0   0     1.474273653193     0.00000000     0.00000000
 C      2   1   0     1.473898497726   119.78512232     0.00000000
 O      2   1   3     1.254265781762   120.09848585   180.00074647
 H      1   2   3     1.090629545629   111.40499394   180.00023636
 H      1   2   3     1.090954337129   109.62002074   300.28806600
 H      1   2   3     1.090955175798   109.62103172    59.71097156
 H      3   2   1     1.090967827986   109.63347655    59.71770009
 H      3   2   1     1.090972133650   109.63335574   300.28298882
 H      3   2   1     1.090795645298   111.40078255   180.00049218

---------------------------
INTERNAL COORDINATES (A.U.)
---------------------------
 C      0   0   0     0.000000000000     0.00000000     0.00000000
 C      1   0   0     2.785973450991     0.00000000     0.00000000
 C      2   1   0     2.785264509901   119.78512232     0.00000000
 O      2   1   3     2.370218826680   120.09848585   180.00074647
 H      1   2   3     2.060991154803   111.40499394   180.00023636
 H      1   2   3     2.061604921787   109.62002074   300.28806600
 H      1   2   3     2.061606506642   109.62103172    59.71097156
 H      3   2   1     2.061630415812   109.63347655    59.71770009
 H      3   2   1     2.061638552338   109.63335574   300.28298882
 H      3   2   1     2.061305037686   111.40078255   180.00049218

---------------------
BASIS SET INFORMATION
---------------------
There are 3 groups of distinct atoms

 Group   1 Type C   : 11s6p2d1f contracted to 5s3p2d1f pattern {62111/411/11/1}
 Group   2 Type O   : 11s6p2d1f contracted to 5s3p2d1f pattern {62111/411/11/1}
 Group   3 Type H   : 5s1p contracted to 3s1p pattern {311/1}

Atom   0C    basis set group =>   1
Atom   1C    basis set group =>   1
Atom   2C    basis set group =>   1
Atom   3O    basis set group =>   2
Atom   4H    basis set group =>   3
Atom   5H    basis set group =>   3
Atom   6H    basis set group =>   3
Atom   7H    basis set group =>   3
Atom   8H    basis set group =>   3
Atom   9H    basis set group =>   3
---------------------------------
AUXILIARY/J BASIS SET INFORMATION
---------------------------------
There are 3 groups of distinct atoms

 Group   1 Type C   : 12s5p4d2f1g contracted to 6s4p3d1f1g pattern {711111/2111/211/2/1}
 Group   2 Type O   : 12s5p4d2f1g contracted to 6s4p3d1f1g pattern {711111/2111/211/2/1}
 Group   3 Type H   : 5s2p1d contracted to 3s1p1d pattern {311/2/1}

Atom   0C    basis set group =>   1
Atom   1C    basis set group =>   1
Atom   2C    basis set group =>   1
Atom   3O    basis set group =>   2
Atom   4H    basis set group =>   3
Atom   5H    basis set group =>   3
Atom   6H    basis set group =>   3
Atom   7H    basis set group =>   3
Atom   8H    basis set group =>   3
Atom   9H    basis set group =>   3


           ************************************************************
           *        Program running with 6 parallel MPI-processes     *
           *              working on a common directory               *
           ************************************************************
------------------------------------------------------------------------------
                           ORCA GTO INTEGRAL CALCULATION
                           -- RI-GTO INTEGRALS CHOSEN --
------------------------------------------------------------------------------
------------------------------------------------------------------------------
                   ___                                                        
                  /   \      - P O W E R E D   B Y -                         
                 /     \                                                     
                 |  |  |   _    _      __       _____    __    __             
                 |  |  |  | |  | |    /  \     |  _  \  |  |  /  |          
                  \  \/   | |  | |   /    \    | | | |  |  | /  /          
                 / \  \   | |__| |  /  /\  \   | |_| |  |  |/  /          
                |  |  |   |  __  | /  /__\  \  |    /   |      \           
                |  |  |   | |  | | |   __   |  |    \   |  |\   \          
                \     /   | |  | | |  |  |  |  | |\  \  |  | \   \       
                 \___/    |_|  |_| |__|  |__|  |_| \__\ |__|  \__/        
                                                                              
                      - O R C A' S   B I G   F R I E N D -                    
                                      &                                       
                       - I N T E G R A L  F E E D E R -                       
                                                                              
 v1 FN, 2020, v2 2021                                                         
------------------------------------------------------------------------------


Reading SHARK input file acetone_OPT.SHARKINP.tmp ... ok
----------------------
SHARK INTEGRAL PACKAGE
----------------------

Number of atoms                             ...     10
Number of basis functions                   ...    160
Number of shells                            ...     68
Maximum angular momentum                    ...      3
Integral batch strategy                     ... SHARK/LIBINT Hybrid
RI-J (if used) integral strategy            ... SPLIT-RIJ (Revised 2003 algorithm where possible)
Printlevel                                  ...      1
Contraction scheme used                     ... SEGMENTED contraction
Coulomb Range Separation                    ... NOT USED
Exchange Range Separation                   ... NOT USED
Finite Nucleus Model                        ... NOT USED
Auxiliary Coulomb fitting basis             ... AVAILABLE
   # of basis functions in Aux-J            ...    262
   # of shells in Aux-J                     ...     90
   Maximum angular momentum in Aux-J        ...      4
Auxiliary J/K fitting basis                 ... NOT available
Auxiliary Correlation fitting basis         ... NOT available
Auxiliary 'external' fitting basis          ... NOT available
Integral threshold                          ...     2.500000e-11
Primitive cut-off                           ...     2.500000e-12
Primitive pair pre-selection threshold      ...     2.500000e-12

Calculating pre-screening integrals         ... done (  0.0 sec) Dimension = 68
Organizing shell pair data                  ... done (  0.0 sec)
Shell pair information
Total number of shell pairs                 ...      2346
Shell pairs after pre-screening             ...      2303
Total number of primitive shell pairs       ...      6892
Primitive shell pairs kept                  ...      5558
          la=0 lb=0:    705 shell pairs
          la=1 lb=0:    679 shell pairs
          la=1 lb=1:    171 shell pairs
          la=2 lb=0:    302 shell pairs
          la=2 lb=1:    144 shell pairs
          la=2 lb=2:     36 shell pairs
          la=3 lb=0:    152 shell pairs
          la=3 lb=1:     72 shell pairs
          la=3 lb=2:     32 shell pairs
          la=3 lb=3:     10 shell pairs

Calculating one electron integrals          ... done (  0.0 sec)
Calculating RI/J V-Matrix + Cholesky decomp.... done (  0.0 sec)
Calculating Nuclear repulsion               ... done (  0.0 sec) ENN=    119.915696935405 Eh

SHARK setup successfully completed in   0.1 seconds

Maximum memory used throughout the entire GTOINT-calculation: 13.8 MB


           ************************************************************
           *        Program running with 6 parallel MPI-processes     *
           *              working on a common directory               *
           ************************************************************
-------------------------------------------------------------------------------
                                 ORCA SCF
-------------------------------------------------------------------------------

------------
SCF SETTINGS
------------
Hamiltonian:
 Density Functional     Method          .... DFT(GTOs)
 Exchange Functional    Exchange        .... PBE
   PBE kappa parameter   XKappa         ....  0.804000
   PBE mue parameter    XMuePBE         ....  0.219520
 Correlation Functional Correlation     .... PBE
   PBE beta parameter  CBetaPBE         ....  0.066725
 LDA part of GGA corr.  LDAOpt          .... PW91-LDA
 Gradients option       PostSCFGGA      .... off
 Hybrid DFT is turned on
   Fraction HF Exchange ScalHFX         ....  0.250000
   Scaling of DF-GGA-X  ScalDFX         ....  0.750000
   Scaling of DF-GGA-C  ScalDFC         ....  1.000000
   Scaling of DF-LDA-C  ScalLDAC        ....  1.000000
   Perturbative correction              ....  0.000000
   Density functional embedding theory  .... OFF
   NL short-range parameter             ....  6.900000
 RI-approximation to the Coulomb term is turned on
   Number of AuxJ basis functions       .... 262
   RIJ-COSX (HFX calculated with COS-X)).... on


General Settings:
 Integral files         IntName         .... acetone_OPT
 Hartree-Fock type      HFTyp           .... RHF
 Total Charge           Charge          ....    0
 Multiplicity           Mult            ....    1
 Number of Electrons    NEL             ....   32
 Basis Dimension        Dim             ....  160
 Nuclear Repulsion      ENuc            ....    119.9156969354 Eh

Convergence Acceleration:
 DIIS                   CNVDIIS         .... on
   Start iteration      DIISMaxIt       ....    12
   Startup error        DIISStart       ....  0.200000
   # of expansion vecs  DIISMaxEq       ....     5
   Bias factor          DIISBfac        ....   1.050
   Max. coefficient     DIISMaxC        ....  10.000
 Trust-Rad. Augm. Hess. CNVTRAH         .... auto
   Auto Start mean grad. ratio tolernc. ....  1.125000
   Auto Start start iteration           ....    20
   Auto Start num. interpolation iter.  ....    10
   Max. Number of Micro iterations      ....    16
   Max. Number of Macro iterations      .... Maxiter - #DIIS iter
   Number of Davidson start vectors     ....     2
   Converg. threshold I  (grad. norm)   ....   1.000e-05
   Converg. threshold II (energy diff.) ....   1.000e-08
   Grad. Scal. Fac. for Micro threshold ....   0.100
   Minimum threshold for Micro iter.    ....   0.010
   NR start threshold (gradient norm)   ....   0.001
   Initial trust radius                 ....   0.400
   Minimum AH scaling param. (alpha)    ....   1.000
   Maximum AH scaling param. (alpha)    .... 1000.000
   Orbital update algorithm             .... Taylor
   White noise on init. David. guess    .... on
   Maximum white noise                  ....   0.010
   Quad. conv. algorithm                .... NR
 SOSCF                  CNVSOSCF        .... on
   Start iteration      SOSCFMaxIt      ....   150
   Startup grad/error   SOSCFStart      ....  0.003300
 Level Shifting         CNVShift        .... on
   Level shift para.    LevelShift      ....    0.2500
   Turn off err/grad.   ShiftErr        ....    0.0010
 Zerner damping         CNVZerner       .... off
 Static damping         CNVDamp         .... on
   Fraction old density DampFac         ....    0.7000
   Max. Damping (<1)    DampMax         ....    0.9800
   Min. Damping (>=0)   DampMin         ....    0.0000
   Turn off err/grad.   DampErr         ....    0.1000
 Fernandez-Rico         CNVRico         .... off

SCF Procedure:
 Maximum # iterations   MaxIter         ....   125
 SCF integral mode      SCFMode         .... Direct
   Integral package                     .... SHARK and LIBINT hybrid scheme
 Reset frequency        DirectResetFreq ....    20
 Integral Threshold     Thresh          ....  2.500e-11 Eh
 Primitive CutOff       TCut            ....  2.500e-12 Eh

Convergence Tolerance:
 Convergence Check Mode ConvCheckMode   .... Total+1el-Energy
 Convergence forced     ConvForced      .... 0
 Energy Change          TolE            ....  1.000e-08 Eh
 1-El. energy change                    ....  1.000e-05 Eh
 Orbital Gradient       TolG            ....  1.000e-05
 Orbital Rotation angle TolX            ....  1.000e-05
 DIIS Error             TolErr          ....  5.000e-07


Diagonalization of the overlap matrix:
Smallest eigenvalue                        ... 2.885e-04
Time for diagonalization                   ...    0.004 sec
Threshold for overlap eigenvalues          ... 1.000e-08
Number of eigenvalues below threshold      ... 0
Time for construction of square roots      ...    0.001 sec
Total time needed                          ...    0.005 sec

Time for model grid setup =    0.027 sec

------------------------------
INITIAL GUESS: MODEL POTENTIAL
------------------------------
Loading Hartree-Fock densities                     ... done
Calculating cut-offs                               ... done
Initializing the effective Hamiltonian             ... done
Setting up the integral package (SHARK)            ... done
Starting the Coulomb interaction                   ... done (   0.0 sec)
Reading the grid                                   ... done
Mapping shells                                     ... done
Starting the XC term evaluation                    ... done (   0.0 sec)
  promolecular density results
     # of electrons  =     31.994162080
     EX              =    -25.230161252
     EC              =     -1.034511937
     EX+EC           =    -26.264673190
Transforming the Hamiltonian                       ... done (   0.0 sec)
Diagonalizing the Hamiltonian                      ... done (   0.0 sec)
Back transforming the eigenvectors                 ... done (   0.0 sec)
Now organizing SCF variables                       ... done
                      ------------------
                      INITIAL GUESS DONE (   0.1 sec)
                      ------------------
-------------------
DFT GRID GENERATION
-------------------

General Integration Accuracy     IntAcc      ... 4.388
Radial Grid Type                 RadialGrid  ... OptM3 with GC (2021)
Angular Grid (max. ang.)         AngularGrid ... 4 (Lebedev-302)
Angular grid pruning method      GridPruning ... 4 (adaptive)
Weight generation scheme         WeightScheme... Becke
Basis function cutoff            BFCut       ... 1.0000e-11
Integration weight cutoff        WCut        ... 1.0000e-14
Angular grids for H and He will be reduced by one unit
Partially contracted basis set               ... off
Rotationally invariant grid construction     ... off

Total number of grid points                  ...    43775
Total number of batches                      ...      688
Average number of points per batch           ...       63
Average number of grid points per atom       ...     4378
Time for grid setup =    0.197 sec

--------------------
COSX GRID GENERATION
--------------------

GRIDX 1
-------
General Integration Accuracy     IntAcc      ... 3.816
Radial Grid Type                 RadialGrid  ... OptM3 with GC (2021)
Angular Grid (max. ang.)         AngularGrid ... 1 (Lebedev-50)
Angular grid pruning method      GridPruning ... 4 (adaptive)
Weight generation scheme         WeightScheme... Becke
Basis function cutoff            BFCut       ... 1.0000e-11
Integration weight cutoff        WCut        ... 1.0000e-14
Angular grids for H and He will be reduced by one unit
Partially contracted basis set               ... on
Rotationally invariant grid construction     ... off

Total number of grid points                  ...     5623
Total number of batches                      ...       94
Average number of points per batch           ...       59
Average number of grid points per atom       ...      562
UseSFitting                                  ... on

GRIDX 2
-------
General Integration Accuracy     IntAcc      ... 4.020
Radial Grid Type                 RadialGrid  ... OptM3 with GC (2021)
Angular Grid (max. ang.)         AngularGrid ... 2 (Lebedev-110)
Angular grid pruning method      GridPruning ... 4 (adaptive)
Weight generation scheme         WeightScheme... Becke
Basis function cutoff            BFCut       ... 1.0000e-11
Integration weight cutoff        WCut        ... 1.0000e-14
Angular grids for H and He will be reduced by one unit
Partially contracted basis set               ... on
Rotationally invariant grid construction     ... off

Total number of grid points                  ...    12025
Total number of batches                      ...      192
Average number of points per batch           ...       62
Average number of grid points per atom       ...     1202
UseSFitting                                  ... on

GRIDX 3
-------
General Integration Accuracy     IntAcc      ... 4.338
Radial Grid Type                 RadialGrid  ... OptM3 with GC (2021)
Angular Grid (max. ang.)         AngularGrid ... 3 (Lebedev-194)
Angular grid pruning method      GridPruning ... 4 (adaptive)
Weight generation scheme         WeightScheme... Becke
Basis function cutoff            BFCut       ... 1.0000e-11
Integration weight cutoff        WCut        ... 1.0000e-14
Angular grids for H and He will be reduced by one unit
Partially contracted basis set               ... on
Rotationally invariant grid construction     ... off

Total number of grid points                  ...    26456
Total number of batches                      ...      418
Average number of points per batch           ...       63
Average number of grid points per atom       ...     2646
UseSFitting                                  ... on

Time for X-Grid setup             =    0.146 sec

--------------
SCF ITERATIONS
--------------
ITER       Energy         Delta-E        Max-DP      RMS-DP      [F,P]     Damp
               ***  Starting incremental Fock matrix formation  ***
  0   -192.8255420334   0.000000000000 0.14228378  0.00286129  0.2641383 0.7000
  1   -192.9076311858  -0.082089152435 0.12992178  0.00239720  0.1003861 0.7000
                               ***Turning on DIIS***
  2   -192.9383750763  -0.030743890506 0.13046583  0.00298509  0.0450074 0.0000
  3   -192.9870290027  -0.048653926356 0.13423275  0.00225323  0.0529103 0.0000
  4   -192.9977062071  -0.010677204359 0.03513491  0.00062018  0.0153922 0.0000
                      *** Initiating the SOSCF procedure ***
                           *** Shutting down DIIS ***
                      *** Re-Reading the Fockian *** 
                      *** Removing any level shift *** 
ITER      Energy       Delta-E        Grad      Rot      Max-DP    RMS-DP
  5   -192.99866785  -0.0009616385  0.000867  0.000867  0.016502  0.000282
               *** Restarting incremental Fock matrix formation ***
  6   -192.99869230  -0.0000244537  0.000438  0.001244  0.012842  0.000219
  7   -192.99869320  -0.0000009037  0.000466  0.000610  0.001798  0.000033
  8   -192.99869433  -0.0000011233  0.000187  0.000244  0.002505  0.000044
  9   -192.99869447  -0.0000001483  0.000097  0.000085  0.000141  0.000004
 10   -192.99869469  -0.0000002144  0.000016  0.000033  0.000387  0.000007
 11   -192.99869469  -0.0000000009  0.000004  0.000007  0.000084  0.000001
                  ***Gradient check signals convergence***
              ***Rediagonalizing the Fockian in SOSCF/NRSCF***

               *****************************************************
               *                     SUCCESS                       *
               *           SCF CONVERGED AFTER  12 CYCLES          *
               *****************************************************

Old exchange energy                            =     -6.471407225 Eh
New exchange energy                            =     -6.471410241 Eh
Exchange energy change after final integration =     -0.000003017 Eh
Total energy after final integration           =   -192.998697708 Eh
Final COS-X integration done in                =     0.685 sec

----------------
TOTAL SCF ENERGY
----------------

Total Energy       :         -192.99869771 Eh           -5251.76156 eV

Components:
Nuclear Repulsion  :          119.91569694 Eh            3263.07200 eV
Electronic Energy  :         -312.91439464 Eh           -8514.83356 eV
One Electron Energy:         -498.49562161 Eh          -13564.75548 eV
Two Electron Energy:          185.58122697 Eh            5049.92192 eV
Max COSX asymmetry :            0.00000123 Eh               0.00003 eV

Virial components:
Potential Energy   :         -385.07924157 Eh          -10478.53888 eV
Kinetic Energy     :          192.08054386 Eh            5226.77732 eV
Virial Ratio       :            2.00478005


DFT components:
N(Alpha)           :       15.999988519418 electrons
N(Beta)            :       15.999988519418 electrons
N(Total)           :       31.999977038836 electrons
E(X)               :      -19.361102446917 Eh       
E(C)               :       -1.042397592190 Eh       
E(XC)              :      -20.403500039107 Eh       
DFET-embed. en.    :        0.000000000000 Eh       

---------------
SCF CONVERGENCE
---------------

  Last Energy change         ...   -2.0824e-09  Tolerance :   1.0000e-08
  Last MAX-Density change    ...    7.7716e-16  Tolerance :   1.0000e-07
  Last RMS-Density change    ...    1.5747e-17  Tolerance :   5.0000e-09
  Last Orbital Gradient      ...    7.2468e-07  Tolerance :   1.0000e-05
  Last Orbital Rotation      ...    1.1765e-06  Tolerance :   1.0000e-05

             **** THE GBW FILE WAS UPDATED (acetone_OPT.gbw) ****
             **** DENSITY acetone_OPT.scfp WAS UPDATED ****
             **** ENERGY FILE WAS UPDATED (acetone_OPT.en.tmp) ****
             **** THE GBW FILE WAS UPDATED (acetone_OPT.gbw) ****
             **** DENSITY acetone_OPT.scfp WAS UPDATED ****
----------------
ORBITAL ENERGIES
----------------

  NO   OCC          E(Eh)            E(eV) 
   0   2.0000     -19.188215      -522.1379 
   1   2.0000     -10.313768      -280.6519 
   2   2.0000     -10.227892      -278.3151 
   3   2.0000     -10.227868      -278.3144 
   4   2.0000      -1.046851       -28.4863 
   5   2.0000      -0.806097       -21.9350 
   6   2.0000      -0.743190       -20.2232 
   7   2.0000      -0.556387       -15.1401 
   8   2.0000      -0.484838       -13.1931 
   9   2.0000      -0.477421       -12.9913 
  10   2.0000      -0.470134       -12.7930 
  11   2.0000      -0.426236       -11.5985 
  12   2.0000      -0.400152       -10.8887 
  13   2.0000      -0.397441       -10.8149 
  14   2.0000      -0.352283        -9.5861 
  15   2.0000      -0.263357        -7.1663 
  16   0.0000      -0.020851        -0.5674 
  17   0.0000       0.035596         0.9686 
  18   0.0000       0.088626         2.4116 
  19   0.0000       0.100119         2.7244 
  20   0.0000       0.105942         2.8828 
  21   0.0000       0.137933         3.7533 
  22   0.0000       0.139788         3.8038 
  23   0.0000       0.142220         3.8700 
  24   0.0000       0.167562         4.5596 
  25   0.0000       0.187745         5.1088 
  26   0.0000       0.209298         5.6953 
  27   0.0000       0.223148         6.0722 
  28   0.0000       0.230175         6.2634 
  29   0.0000       0.300000         8.1634 
  30   0.0000       0.300816         8.1856 
  31   0.0000       0.315428         8.5832 
  32   0.0000       0.378031        10.2868 
  33   0.0000       0.388055        10.5595 
  34   0.0000       0.411507        11.1977 
  35   0.0000       0.428583        11.6623 
  36   0.0000       0.439917        11.9707 
  37   0.0000       0.444780        12.1031 
  38   0.0000       0.465227        12.6595 
  39   0.0000       0.466189        12.6857 
  40   0.0000       0.468940        12.7605 
  41   0.0000       0.498665        13.5694 
  42   0.0000       0.558438        15.1959 
  43   0.0000       0.564832        15.3699 
  44   0.0000       0.582515        15.8510 
  45   0.0000       0.626532        17.0488 
  46   0.0000       0.664478        18.0814 
  47   0.0000       0.669191        18.2096 
  48   0.0000       0.735396        20.0111 
  49   0.0000       0.788139        21.4463 
  50   0.0000       0.822982        22.3945 
  51   0.0000       0.850153        23.1338 
  52   0.0000       0.913142        24.8479 
  53   0.0000       0.936902        25.4944 
  54   0.0000       0.976313        26.5668 
  55   0.0000       0.984776        26.7971 
  56   0.0000       1.007307        27.4102 
  57   0.0000       1.064230        28.9592 
  58   0.0000       1.101304        29.9680 
  59   0.0000       1.125644        30.6303 
  60   0.0000       1.158550        31.5257 
  61   0.0000       1.231787        33.5186 
  62   0.0000       1.401022        38.1238 
  63   0.0000       1.422045        38.6958 
  64   0.0000       1.450520        39.4707 
  65   0.0000       1.503976        40.9253 
  66   0.0000       1.506778        41.0015 
  67   0.0000       1.522252        41.4226 
  68   0.0000       1.533336        41.7242 
  69   0.0000       1.550024        42.1783 
  70   0.0000       1.553949        42.2851 
  71   0.0000       1.566941        42.6386 
  72   0.0000       1.585172        43.1347 
  73   0.0000       1.650976        44.9253 
  74   0.0000       1.659492        45.1571 
  75   0.0000       1.702311        46.3222 
  76   0.0000       1.836984        49.9869 
  77   0.0000       1.856789        50.5258 
  78   0.0000       1.897546        51.6349 
  79   0.0000       1.978067        53.8259 
  80   0.0000       2.029108        55.2148 
  81   0.0000       2.037937        55.4551 
  82   0.0000       2.061135        56.0863 
  83   0.0000       2.081717        56.6464 
  84   0.0000       2.111872        57.4670 
  85   0.0000       2.137574        58.1664 
  86   0.0000       2.208725        60.1025 
  87   0.0000       2.216777        60.3216 
  88   0.0000       2.219843        60.4050 
  89   0.0000       2.334612        63.5280 
  90   0.0000       2.345186        63.8157 
  91   0.0000       2.367366        64.4193 
  92   0.0000       2.382301        64.8257 
  93   0.0000       2.460841        66.9629 
  94   0.0000       2.525540        68.7234 
  95   0.0000       2.533302        68.9346 
  96   0.0000       2.537605        69.0517 
  97   0.0000       2.542183        69.1763 
  98   0.0000       2.546231        69.2865 
  99   0.0000       2.653449        72.2040 
 100   0.0000       2.719139        73.9915 
 101   0.0000       2.767741        75.3141 
 102   0.0000       2.783352        75.7389 
 103   0.0000       2.799898        76.1891 
 104   0.0000       2.864994        77.9604 
 105   0.0000       2.897993        78.8584 
 106   0.0000       2.984331        81.2078 
 107   0.0000       3.008950        81.8777 
 108   0.0000       3.017151        82.1009 
 109   0.0000       3.071070        83.5681 
 110   0.0000       3.098375        84.3111 
 111   0.0000       3.099149        84.3321 
 112   0.0000       3.101597        84.3987 
 113   0.0000       3.131684        85.2175 
 114   0.0000       3.133523        85.2675 
 115   0.0000       3.249053        88.4112 
 116   0.0000       3.261485        88.7495 
 117   0.0000       3.286756        89.4372 
 118   0.0000       3.328407        90.5706 
 119   0.0000       3.353709        91.2591 
 120   0.0000       3.389995        92.2465 
 121   0.0000       3.467380        94.3522 
 122   0.0000       3.470045        94.4247 
 123   0.0000       3.486987        94.8858 
 124   0.0000       3.521874        95.8351 
 125   0.0000       3.573439        97.2382 
 126   0.0000       3.660911        99.6185 
 127   0.0000       3.809812       103.6702 
 128   0.0000       3.839248       104.4713 
 129   0.0000       3.901914       106.1765 
 130   0.0000       3.910498       106.4101 
 131   0.0000       4.005437       108.9935 
 132   0.0000       4.028545       109.6223 
 133   0.0000       4.075169       110.8910 
 134   0.0000       4.077084       110.9431 
 135   0.0000       4.325990       117.7162 
 136   0.0000       4.387528       119.3907 
 137   0.0000       4.395263       119.6012 
 138   0.0000       4.430753       120.5669 
 139   0.0000       4.496443       122.3544 
 140   0.0000       4.556471       123.9879 
 141   0.0000       4.711000       128.1928 
 142   0.0000       4.778174       130.0207 
 143   0.0000       4.814351       131.0052 
 144   0.0000       5.214537       141.8948 
 145   0.0000       5.217076       141.9639 
 146   0.0000       5.563336       151.3861 
 147   0.0000       5.640148       153.4762 
 148   0.0000       6.060795       164.9226 
 149   0.0000       6.236011       169.6905 
 150   0.0000       6.406144       174.3200 
 151   0.0000       6.441050       175.2699 
 152   0.0000       6.515490       177.2955 
 153   0.0000       6.826266       185.7521 
 154   0.0000       7.016305       190.9234 
 155   0.0000       7.047239       191.7651 
 156   0.0000      22.413037       609.8897 
 157   0.0000      22.461139       611.1987 
 158   0.0000      23.040849       626.9734 
 159   0.0000      43.902187      1194.6392 

                    ********************************
                    * MULLIKEN POPULATION ANALYSIS *
                    ********************************

-----------------------
MULLIKEN ATOMIC CHARGES
-----------------------
   0 C :   -0.321660
   1 C :    0.179111
   2 C :   -0.321943
   3 O :   -0.339592
   4 H :    0.145467
   5 H :    0.128140
   6 H :    0.128231
   7 H :    0.128268
   8 H :    0.128323
   9 H :    0.145654
Sum of atomic charges:    0.0000000

--------------------------------
MULLIKEN REDUCED ORBITAL CHARGES
--------------------------------
  0 C s       :     3.179511  s :     3.179511
      pz      :     1.005378  p :     3.091543
      px      :     1.087537
      py      :     0.998628
      dz2     :     0.007104  d :     0.047355
      dxz     :     0.013353
      dyz     :     0.009531
      dx2y2   :     0.011266
      dxy     :     0.006103
      f0      :     0.000207  f :     0.003251
      f+1     :     0.000070
      f-1     :     0.000431
      f+2     :     0.001529
      f-2     :     0.000564
      f+3     :     0.000287
      f-3     :     0.000162
  1 C s       :     3.172799  s :     3.172799
      pz      :     0.843532  p :     2.417802
      px      :     0.794388
      py      :     0.779882
      dz2     :     0.025624  d :     0.213018
      dxz     :     0.050651
      dyz     :     0.037971
      dx2y2   :     0.066867
      dxy     :     0.031905
      f0      :     0.001894  f :     0.017270
      f+1     :     0.002118
      f-1     :     0.001458
      f+2     :     0.000964
      f-2     :     0.004312
      f+3     :     0.003736
      f-3     :     0.002789
  2 C s       :     3.179473  s :     3.179473
      pz      :     1.024821  p :     3.091814
      px      :     0.990907
      py      :     1.076086
      dz2     :     0.006453  d :     0.047402
      dxz     :     0.011562
      dyz     :     0.010795
      dx2y2   :     0.011486
      dxy     :     0.007105
      f0      :     0.000071  f :     0.003254
      f+1     :     0.000543
      f-1     :     0.000024
      f+2     :     0.001522
      f-2     :     0.000517
      f+3     :     0.000154
      f-3     :     0.000423
  3 O s       :     3.835468  s :     3.835468
      pz      :     1.599145  p :     4.471832
      px      :     1.441279
      py      :     1.431408
      dz2     :     0.003167  d :     0.030599
      dxz     :     0.005695
      dyz     :     0.003527
      dx2y2   :     0.009214
      dxy     :     0.008997
      f0      :     0.000219  f :     0.001694
      f+1     :     0.000169
      f-1     :     0.000120
      f+2     :     0.000039
      f-2     :     0.000288
      f+3     :     0.000473
      f-3     :     0.000387
  4 H s       :     0.832944  s :     0.832944
      pz      :     0.006714  p :     0.021589
      px      :     0.010746
      py      :     0.004129
  5 H s       :     0.850241  s :     0.850241
      pz      :     0.005701  p :     0.021619
      px      :     0.004539
      py      :     0.011378
  6 H s       :     0.850151  s :     0.850151
      pz      :     0.008140  p :     0.021617
      px      :     0.008847
      py      :     0.004630
  7 H s       :     0.850114  s :     0.850114
      pz      :     0.006990  p :     0.021618
      px      :     0.004819
      py      :     0.009809
  8 H s       :     0.850063  s :     0.850063
      pz      :     0.006495  p :     0.021614
      px      :     0.010333
      py      :     0.004786
  9 H s       :     0.832766  s :     0.832766
      pz      :     0.008033  p :     0.021580
      px      :     0.004138
      py      :     0.009409


                     *******************************
                     * LOEWDIN POPULATION ANALYSIS *
                     *******************************

----------------------
LOEWDIN ATOMIC CHARGES
----------------------
   0 C :   -0.268473
   1 C :   -0.372724
   2 C :   -0.268561
   3 O :    0.074010
   4 H :    0.138316
   5 H :    0.139721
   6 H :    0.139732
   7 H :    0.139779
   8 H :    0.139785
   9 H :    0.138415

-------------------------------
LOEWDIN REDUCED ORBITAL CHARGES
-------------------------------
  0 C s       :     2.826095  s :     2.826095
      pz      :     1.053552  p :     3.181699
      px      :     1.071115
      py      :     1.057031
      dz2     :     0.027426  d :     0.235780
      dxz     :     0.071570
      dyz     :     0.057478
      dx2y2   :     0.059972
      dxy     :     0.019334
      f0      :     0.004350  f :     0.024900
      f+1     :     0.001424
      f-1     :     0.004435
      f+2     :     0.004823
      f-2     :     0.003803
      f+3     :     0.003438
      f-3     :     0.002627
  1 C s       :     2.773030  s :     2.773030
      pz      :     0.886974  p :     2.710936
      px      :     0.944417
      py      :     0.879545
      dz2     :     0.114045  d :     0.779867
      dxz     :     0.163966
      dyz     :     0.129030
      dx2y2   :     0.205962
      dxy     :     0.166864
      f0      :     0.013565  f :     0.108891
      f+1     :     0.014314
      f-1     :     0.008343
      f+2     :     0.005210
      f-2     :     0.025348
      f+3     :     0.022768
      f-3     :     0.019344
  2 C s       :     2.826037  s :     2.826037
      pz      :     1.056013  p :     3.181715
      px      :     1.058903
      py      :     1.066798
      dz2     :     0.022451  d :     0.235894
      dxz     :     0.064257
      dyz     :     0.064315
      dx2y2   :     0.059024
      dxy     :     0.025847
      f0      :     0.003735  f :     0.024915
      f+1     :     0.004887
      f-1     :     0.001191
      f+2     :     0.004851
      f-2     :     0.002920
      f+3     :     0.002952
      f-3     :     0.004379
  3 O s       :     3.433540  s :     3.433540
      pz      :     1.502099  p :     4.423625
      px      :     1.485170
      py      :     1.436356
      dz2     :     0.007768  d :     0.063691
      dxz     :     0.010085
      dyz     :     0.007545
      dx2y2   :     0.016112
      dxy     :     0.022182
      f0      :     0.000577  f :     0.005134
      f+1     :     0.000590
      f-1     :     0.000377
      f+2     :     0.000061
      f-2     :     0.000897
      f+3     :     0.001241
      f-3     :     0.001391
  4 H s       :     0.799682  s :     0.799682
      pz      :     0.018573  p :     0.062002
      px      :     0.031270
      py      :     0.012159
  5 H s       :     0.797590  s :     0.797590
      pz      :     0.017812  p :     0.062689
      px      :     0.014044
      py      :     0.030833
  6 H s       :     0.797579  s :     0.797579
      pz      :     0.021872  p :     0.062689
      px      :     0.026852
      py      :     0.013964
  7 H s       :     0.797536  s :     0.797536
      pz      :     0.019122  p :     0.062686
      px      :     0.013936
      py      :     0.029628
  8 H s       :     0.797530  s :     0.797530
      pz      :     0.020370  p :     0.062684
      px      :     0.027902
      py      :     0.014412
  9 H s       :     0.799613  s :     0.799613
      pz      :     0.022352  p :     0.061972
      px      :     0.012358
      py      :     0.027262


                      *****************************
                      * MAYER POPULATION ANALYSIS *
                      *****************************

  NA   - Mulliken gross atomic population
  ZA   - Total nuclear charge
  QA   - Mulliken gross atomic charge
  VA   - Mayer's total valence
  BVA  - Mayer's bonded valence
  FA   - Mayer's free valence

  ATOM       NA         ZA         QA         VA         BVA        FA
  0 C      6.3217     6.0000    -0.3217     3.7510     3.7510    -0.0000
  1 C      5.8209     6.0000     0.1791     4.1454     4.1454     0.0000
  2 C      6.3219     6.0000    -0.3219     3.7506     3.7506     0.0000
  3 O      8.3396     8.0000    -0.3396     2.1071     2.1071    -0.0000
  4 H      0.8545     1.0000     0.1455     0.9988     0.9988     0.0000
  5 H      0.8719     1.0000     0.1281     0.9737     0.9737     0.0000
  6 H      0.8718     1.0000     0.1282     0.9737     0.9737    -0.0000
  7 H      0.8717     1.0000     0.1283     0.9737     0.9737    -0.0000
  8 H      0.8717     1.0000     0.1283     0.9737     0.9737     0.0000
  9 H      0.8543     1.0000     0.1457     0.9988     0.9988    -0.0000

  Mayer bond orders larger than 0.100000
B(  0-C ,  1-C ) :   1.0040 B(  0-C ,  4-H ) :   0.9684 B(  0-C ,  5-H ) :   0.9381 
B(  0-C ,  6-H ) :   0.9381 B(  1-C ,  2-C ) :   1.0039 B(  1-C ,  3-O ) :   2.0971 
B(  2-C ,  7-H ) :   0.9380 B(  2-C ,  8-H ) :   0.9380 B(  2-C ,  9-H ) :   0.9685 


-------
TIMINGS
-------

Total SCF time: 0 days 0 hours 0 min 6 sec 

Total time                  ....       6.089 sec
Sum of individual times     ....       5.986 sec  ( 98.3%)

Fock matrix formation       ....       5.489 sec  ( 90.2%)
  Split-RI-J                ....       0.507 sec  (  9.2% of F)
  Chain of spheres X        ....       3.980 sec  ( 72.5% of F)
  XC integration            ....       0.977 sec  ( 17.8% of F)
    Basis function eval.    ....       0.251 sec  ( 25.7% of XC)
    Density eval.           ....       0.203 sec  ( 20.8% of XC)
    XC-Functional eval.     ....       0.044 sec  (  4.5% of XC)
    XC-Potential eval.      ....       0.262 sec  ( 26.8% of XC)
Diagonalization             ....       0.030 sec  (  0.5%)
Density matrix formation    ....       0.004 sec  (  0.1%)
Population analysis         ....       0.010 sec  (  0.2%)
Initial guess               ....       0.040 sec  (  0.7%)
Orbital Transformation      ....       0.000 sec  (  0.0%)
Orbital Orthonormalization  ....       0.000 sec  (  0.0%)
DIIS solution               ....       0.022 sec  (  0.4%)
SOSCF solution              ....       0.022 sec  (  0.4%)
Grid generation             ....       0.369 sec  (  6.1%)

Maximum memory used throughout the entire SCF-calculation: 64.4 MB

-------------------------   --------------------
FINAL SINGLE POINT ENERGY      -192.998697708422
-------------------------   --------------------



           ************************************************************
           *        Program running with 6 parallel MPI-processes     *
           *              working on a common directory               *
           ************************************************************
------------------------------------------------------------------------------
                         ORCA SCF GRADIENT CALCULATION
------------------------------------------------------------------------------

 ... reading COSX grid (gridx3)
Gradient of the Kohn-Sham DFT energy:
Kohn-Sham wavefunction type      ... RKS
Hartree-Fock exchange scaling    ...    0.250
Number of operators              ...    1
Number of atoms                  ...   10
Basis set dimensions             ...  160
Integral neglect threshold       ... 2.5e-11
Integral primitive cutoff        ... 2.5e-12
SHARK Integral package           ... ON

Nuc. rep. gradient       (SHARK) ... done (  0.0 sec)
HCore & Overlap gradient (SHARK) ... done (  0.0 sec)
RI-J gradient            (SHARK) ... done (  0.2 sec)
COSX-gradient                    ... done (  0.8 sec)
Exchange-correlation gradient    ... done

------------------
CARTESIAN GRADIENT
------------------

   1   C   :    0.001528776    0.008161076   -0.008736214
   2   C   :    0.063888627   -0.052275526    0.008018919
   3   C   :   -0.009245962   -0.002230877    0.007988326
   4   O   :   -0.044171803    0.036504448   -0.005629814
   5   H   :   -0.000654317   -0.002268222    0.002563518
   6   H   :   -0.003397848    0.002806479   -0.001073652
   7   H   :   -0.003004484    0.003344387   -0.000594146
   8   H   :   -0.003856596    0.002321239   -0.000352110
   9   H   :   -0.003497518    0.002917547    0.000210840
  10   H   :    0.002410270    0.000857077   -0.002363109

Difference to translation invariance:
           :   -0.0000008555    0.0001376286    0.0000325572

Difference to rotation invariance:
           :    0.0001839097    0.0003193593   -0.0002593475

Norm of the cartesian gradient     ...    0.1029579262
RMS gradient                       ...    0.0187974596
MAX gradient                       ...    0.0638886272

-------
TIMINGS
-------

Total SCF gradient time            ...        1.554 sec

One electron gradient       ....       0.032 sec  (  2.1%)
RI-J Coulomb gradient       ....       0.161 sec  ( 10.3%)
COSX gradient               ....       0.837 sec  ( 53.8%)
XC gradient                 ....       0.357 sec  ( 23.0%)

Maximum memory used throughout the entire SCFGRAD-calculation: 38.7 MB
------------------------------------------------------------------------------
                         ORCA GEOMETRY RELAXATION STEP
------------------------------------------------------------------------------

Reading the OPT-File                    .... done
Getting information on internals        .... done
Copying old internal coords+grads       .... done
Making the new internal coordinates     .... (new redundants).... done
Validating the new internal coordinates .... (new redundants).... done
Calculating the B-matrix                .... done
Calculating the G,G- and P matrices     .... done
Transforming gradient to internals      .... done
Projecting the internal gradient        .... done
Number of atoms                         ....  10
Number of internal coordinates          ....  36
Current Energy                          ....  -192.998697708 Eh
Current gradient norm                   ....     0.102957926 Eh/bohr
Maximum allowed component of the step   ....  0.300
Current trust radius                    ....  0.300
Evaluating the initial hessian          ....  (Almloef) done
Projecting the Hessian                  .... done
Forming the augmented Hessian           .... done
Diagonalizing the augmented Hessian     .... done
Last element of RFO vector              ....  0.995894977
Lowest eigenvalues of augmented Hessian:
 -0.005177280  0.015495299  0.015516698  0.015538391  0.136662643
Length of the computed step             ....  0.090889366
The final length of the internal step   ....  0.090889366
Converting the step to cartesian space:
 Initial RMS(Int)=    0.0151482277
Transforming coordinates:
 Iter   0:  RMS(Cart)=    0.0117926237 RMS(Int)=    0.0151457579
 Iter   1:  RMS(Cart)=    0.0001667271 RMS(Int)=    0.0000692021
 Iter   2:  RMS(Cart)=    0.0000022180 RMS(Int)=    0.0000009559
 Iter   3:  RMS(Cart)=    0.0000000146 RMS(Int)=    0.0000000132
done
Storing new coordinates                 .... done

                                .--------------------.
          ----------------------|Geometry convergence|-------------------------
          Item                value                   Tolerance       Converged
          ---------------------------------------------------------------------
          RMS gradient        0.0104853879            0.0000300000      NO
          MAX gradient        0.0575707980            0.0001000000      NO
          RMS step            0.0151482277            0.0006000000      NO
          MAX step            0.0621352376            0.0010000000      NO
          ........................................................
          Max(Bonds)      0.0329      Max(Angles)    1.09
          Max(Dihed)        0.56      Max(Improp)    0.00
          ---------------------------------------------------------------------

The optimization has not yet converged - more geometry cycles are needed


    ---------------------------------------------------------------------------
                         Redundant Internal Coordinates
                            (Angstroem and degrees)

        Definition                    Value    dE/dq     Step     New-Value
    ----------------------------------------------------------------------------
     1. B(C   1,C   0)                1.4743 -0.013927  0.0159    1.4902   
     2. B(C   2,C   1)                1.4739 -0.014264  0.0163    1.4902   
     3. B(O   3,C   1)                1.2543  0.057571 -0.0329    1.2214   
     4. B(H   4,C   0)                1.0906  0.001830 -0.0027    1.0880   
     5. B(H   5,C   0)                1.0910 -0.002282  0.0033    1.0943   
     6. B(H   6,C   0)                1.0910 -0.002297  0.0033    1.0943   
     7. B(H   7,C   2)                1.0910 -0.002259  0.0033    1.0943   
     8. B(H   8,C   2)                1.0910 -0.002257  0.0033    1.0943   
     9. B(H   9,C   2)                1.0908  0.001910 -0.0028    1.0880   
    10. A(H   5,C   0,H   6)          108.85  0.004294   -1.06    107.79   
    11. A(H   4,C   0,H   6)          108.65 -0.001485    0.41    109.06   
    12. A(C   1,C   0,H   4)          111.40  0.004573   -0.66    110.74   
    13. A(C   1,C   0,H   5)          109.62 -0.002811    0.43    110.05   
    14. A(C   1,C   0,H   6)          109.62 -0.002953    0.45    110.07   
    15. A(H   4,C   0,H   5)          108.65 -0.001546    0.42    109.07   
    16. A(C   2,C   1,O   3)          120.12 -0.004060    0.56    120.68   
    17. A(C   0,C   1,O   3)          120.10 -0.003797    0.53    120.63   
    18. A(C   0,C   1,C   2)          119.79  0.007857   -1.09    118.69   
    19. A(H   7,C   2,H   9)          108.64 -0.001502    0.41    109.05   
    20. A(C   1,C   2,H   9)          111.40  0.004453   -0.64    110.76   
    21. A(H   7,C   2,H   8)          108.85  0.004303   -1.07    107.77   
    22. A(C   1,C   2,H   8)          109.63 -0.002869    0.44    110.07   
    23. A(H   8,C   2,H   9)          108.64 -0.001514    0.42    109.06   
    24. A(C   1,C   2,H   7)          109.63 -0.002798    0.42    110.06   
    25. D(O   3,C   1,C   0,H   5)    120.29 -0.000838    0.30    120.59   
    26. D(O   3,C   1,C   0,H   4)      0.00  0.000022   -0.08     -0.08   
    27. D(C   2,C   1,C   0,H   4)   -180.00 -0.000010    0.01   -179.99   
    28. D(O   3,C   1,C   0,H   6)   -120.29  0.000902   -0.46   -120.75   
    29. D(C   2,C   1,C   0,H   6)     59.71  0.000869   -0.37     59.34   
    30. D(C   2,C   1,C   0,H   5)    -59.71 -0.000871    0.39    -59.32   
    31. D(H   7,C   2,C   1,C   0)     59.72  0.000867   -0.32     59.40   
    32. D(H   9,C   2,C   1,O   3)     -0.00 -0.000039    0.16      0.16   
    33. D(H   9,C   2,C   1,C   0)   -180.00 -0.000006    0.07   -179.93   
    34. D(H   8,C   2,C   1,O   3)    120.28 -0.000974    0.56    120.85   
    35. D(H   8,C   2,C   1,C   0)    -59.72 -0.000942    0.48    -59.24   
    36. D(H   7,C   2,C   1,O   3)   -120.28  0.000834   -0.23   -120.51   
    ----------------------------------------------------------------------------

         *************************************************************
         *                GEOMETRY OPTIMIZATION CYCLE   2            *
         *************************************************************
---------------------------------
CARTESIAN COORDINATES (ANGSTROEM)
---------------------------------
  C      0.100175   -1.355090    0.704160
  C      0.126655   -0.279874   -0.327254
  C      1.322434   -0.163465   -1.208803
  O     -0.814158    0.489532   -0.448360
  H     -0.827593   -1.322091    1.271471
  H      0.192497   -2.335335    0.226635
  H      0.943590   -1.237224    1.391356
  H      1.466744   -1.091721   -1.769966
  H      2.219309    0.004632   -0.604858
  H      1.206286    0.660726   -1.909522

----------------------------
CARTESIAN COORDINATES (A.U.)
----------------------------
  NO LB      ZA    FRAG     MASS         X           Y           Z
   0 C     6.0000    0    12.011    0.189303   -2.560750    1.330669
   1 C     6.0000    0    12.011    0.239344   -0.528885   -0.618420
   2 C     6.0000    0    12.011    2.499039   -0.308905   -2.284307
   3 O     8.0000    0    15.999   -1.538536    0.925082   -0.847277
   4 H     1.0000    0     1.008   -1.563924   -2.498390    2.402733
   5 H     1.0000    0     1.008    0.363767   -4.413143    0.428279
   6 H     1.0000    0     1.008    1.783126   -2.338014    2.629282
   7 H     1.0000    0     1.008    2.771745   -2.063054   -3.344750
   8 H     1.0000    0     1.008    4.193886    0.008753   -1.143015
   9 H     1.0000    0     1.008    2.279550    1.248592   -3.608474

--------------------------------
INTERNAL COORDINATES (ANGSTROEM)
--------------------------------
 C      0   0   0     0.000000000000     0.00000000     0.00000000
 C      1   0   0     1.490169687376     0.00000000     0.00000000
 C      2   1   0     1.490156831614   118.69097438     0.00000000
 O      2   1   3     1.221385230181   120.62865112   179.91180525
 H      1   2   3     1.087972759735   110.74320097   180.01194112
 H      1   2   3     1.094272428004   110.04822189   300.67885080
 H      1   2   3     1.094293967159   110.07445599    59.33828130
 H      3   2   1     1.094251916595   110.05601813    59.40276278
 H      3   2   1     1.094253802734   110.07190531   300.75769096
 H      3   2   1     1.088020576110   110.76337354   180.06810587

---------------------------
INTERNAL COORDINATES (A.U.)
---------------------------
 C      0   0   0     0.000000000000     0.00000000     0.00000000
 C      1   0   0     2.816012602212     0.00000000     0.00000000
 C      2   1   0     2.815988308342   118.69097438     0.00000000
 O      2   1   3     2.308083589058   120.62865112   179.91180525
 H      1   2   3     2.055970557065   110.74320097   180.01194112
 H      1   2   3     2.067875204829   110.04822189   300.67885080
 H      1   2   3     2.067915907933   110.07445599    59.33828130
 H      3   2   1     2.067836443884   110.05601813    59.40276278
 H      3   2   1     2.067840008169   110.07190531   300.75769096
 H      3   2   1     2.056060916918   110.76337354   180.06810587



           ************************************************************
           *        Program running with 6 parallel MPI-processes     *
           *              working on a common directory               *
           ************************************************************
------------------------------------------------------------------------------
                   ___                                                        
                  /   \      - P O W E R E D   B Y -                         
                 /     \                                                     
                 |  |  |   _    _      __       _____    __    __             
                 |  |  |  | |  | |    /  \     |  _  \  |  |  /  |          
                  \  \/   | |  | |   /    \    | | | |  |  | /  /          
                 / \  \   | |__| |  /  /\  \   | |_| |  |  |/  /          
                |  |  |   |  __  | /  /__\  \  |    /   |      \           
                |  |  |   | |  | | |   __   |  |    \   |  |\   \          
                \     /   | |  | | |  |  |  |  | |\  \  |  | \   \       
                 \___/    |_|  |_| |__|  |__|  |_| \__\ |__|  \__/        
                                                                              
                      - O R C A' S   B I G   F R I E N D -                    
                                      &                                       
                       - I N T E G R A L  F E E D E R -                       
                                                                              
 v1 FN, 2020, v2 2021                                                         
------------------------------------------------------------------------------


Reading SHARK input file acetone_OPT.SHARKINP.tmp ... ok
----------------------
SHARK INTEGRAL PACKAGE
----------------------

Number of atoms                             ...     10
Number of basis functions                   ...    160
Number of shells                            ...     68
Maximum angular momentum                    ...      3
Integral batch strategy                     ... SHARK/LIBINT Hybrid
RI-J (if used) integral strategy            ... SPLIT-RIJ (Revised 2003 algorithm where possible)
Printlevel                                  ...      1
Contraction scheme used                     ... SEGMENTED contraction
Coulomb Range Separation                    ... NOT USED
Exchange Range Separation                   ... NOT USED
Finite Nucleus Model                        ... NOT USED
Auxiliary Coulomb fitting basis             ... AVAILABLE
   # of basis functions in Aux-J            ...    262
   # of shells in Aux-J                     ...     90
   Maximum angular momentum in Aux-J        ...      4
Auxiliary J/K fitting basis                 ... NOT available
Auxiliary Correlation fitting basis         ... NOT available
Auxiliary 'external' fitting basis          ... NOT available
Integral threshold                          ...     2.500000e-11
Primitive cut-off                           ...     2.500000e-12
Primitive pair pre-selection threshold      ...     2.500000e-12

Calculating pre-screening integrals         ... done (  0.0 sec) Dimension = 68
Organizing shell pair data                  ... done (  0.0 sec)
Shell pair information
Total number of shell pairs                 ...      2346
Shell pairs after pre-screening             ...      2304
Total number of primitive shell pairs       ...      6892
Primitive shell pairs kept                  ...      5556
          la=0 lb=0:    705 shell pairs
          la=1 lb=0:    680 shell pairs
          la=1 lb=1:    171 shell pairs
          la=2 lb=0:    302 shell pairs
          la=2 lb=1:    144 shell pairs
          la=2 lb=2:     36 shell pairs
          la=3 lb=0:    152 shell pairs
          la=3 lb=1:     72 shell pairs
          la=3 lb=2:     32 shell pairs
          la=3 lb=3:     10 shell pairs

Calculating one electron integrals          ... done (  0.0 sec)
Calculating RI/J V-Matrix + Cholesky decomp.... done (  0.0 sec)
Calculating Nuclear repulsion               ... done (  0.0 sec) ENN=    120.093375725884 Eh

SHARK setup successfully completed in   0.1 seconds

Maximum memory used throughout the entire GTOINT-calculation: 13.8 MB


           ************************************************************
           *        Program running with 6 parallel MPI-processes     *
           *              working on a common directory               *
           ************************************************************

Diagonalization of the overlap matrix:
Smallest eigenvalue                        ... 3.276e-04
Time for diagonalization                   ...    0.003 sec
Threshold for overlap eigenvalues          ... 1.000e-08
Number of eigenvalues below threshold      ... 0
Time for construction of square roots      ...    0.001 sec
Total time needed                          ...    0.004 sec

-------------------
DFT GRID GENERATION
-------------------

General Integration Accuracy     IntAcc      ... 4.388
Radial Grid Type                 RadialGrid  ... OptM3 with GC (2021)
Angular Grid (max. ang.)         AngularGrid ... 4 (Lebedev-302)
Angular grid pruning method      GridPruning ... 4 (adaptive)
Weight generation scheme         WeightScheme... Becke
Basis function cutoff            BFCut       ... 1.0000e-11
Integration weight cutoff        WCut        ... 1.0000e-14
Angular grids for H and He will be reduced by one unit
Partially contracted basis set               ... off
Rotationally invariant grid construction     ... off

Total number of grid points                  ...    43786
Total number of batches                      ...      689
Average number of points per batch           ...       63
Average number of grid points per atom       ...     4379
Time for grid setup =    0.186 sec

--------------------
COSX GRID GENERATION
--------------------

GRIDX 1
-------
General Integration Accuracy     IntAcc      ... 3.816
Radial Grid Type                 RadialGrid  ... OptM3 with GC (2021)
Angular Grid (max. ang.)         AngularGrid ... 1 (Lebedev-50)
Angular grid pruning method      GridPruning ... 4 (adaptive)
Weight generation scheme         WeightScheme... Becke
Basis function cutoff            BFCut       ... 1.0000e-11
Integration weight cutoff        WCut        ... 1.0000e-14
Angular grids for H and He will be reduced by one unit
Partially contracted basis set               ... on
Rotationally invariant grid construction     ... off

Total number of grid points                  ...     5623
Total number of batches                      ...       94
Average number of points per batch           ...       59
Average number of grid points per atom       ...      562
UseSFitting                                  ... on

GRIDX 2
-------
General Integration Accuracy     IntAcc      ... 4.020
Radial Grid Type                 RadialGrid  ... OptM3 with GC (2021)
Angular Grid (max. ang.)         AngularGrid ... 2 (Lebedev-110)
Angular grid pruning method      GridPruning ... 4 (adaptive)
Weight generation scheme         WeightScheme... Becke
Basis function cutoff            BFCut       ... 1.0000e-11
Integration weight cutoff        WCut        ... 1.0000e-14
Angular grids for H and He will be reduced by one unit
Partially contracted basis set               ... on
Rotationally invariant grid construction     ... off

Total number of grid points                  ...    12028
Total number of batches                      ...      192
Average number of points per batch           ...       62
Average number of grid points per atom       ...     1203
UseSFitting                                  ... on

GRIDX 3
-------
General Integration Accuracy     IntAcc      ... 4.338
Radial Grid Type                 RadialGrid  ... OptM3 with GC (2021)
Angular Grid (max. ang.)         AngularGrid ... 3 (Lebedev-194)
Angular grid pruning method      GridPruning ... 4 (adaptive)
Weight generation scheme         WeightScheme... Becke
Basis function cutoff            BFCut       ... 1.0000e-11
Integration weight cutoff        WCut        ... 1.0000e-14
Angular grids for H and He will be reduced by one unit
Partially contracted basis set               ... on
Rotationally invariant grid construction     ... off

Total number of grid points                  ...    26466
Total number of batches                      ...      419
Average number of points per batch           ...       63
Average number of grid points per atom       ...     2647
UseSFitting                                  ... on

Time for X-Grid setup             =    0.157 sec

--------------
SCF ITERATIONS
--------------
ITER       Energy         Delta-E        Max-DP      RMS-DP      [F,P]     Damp
               ***  Starting incremental Fock matrix formation  ***
  0   -193.0012487795   0.000000000000 0.00334156  0.00009802  0.0155031 0.7000
                      *** Initiating the SOSCF procedure ***
                      *** Re-Reading the Fockian *** 
                      *** Removing any level shift *** 
ITER      Energy       Delta-E        Grad      Rot      Max-DP    RMS-DP
  1   -193.00156761  -0.0003188262  0.001581  0.001581  0.008163  0.000277
               *** Restarting incremental Fock matrix formation ***
  2   -193.00225850  -0.0006908919  0.002785  0.008006  0.016470  0.000312
  3   -193.00213403   0.0001244639  0.005900  0.005551  0.010392  0.000198
  4   -193.00232315  -0.0001891155  0.000279  0.000433  0.000816  0.000021
  5   -193.00232318  -0.0000000346  0.000276  0.000263  0.000765  0.000015
  6   -193.00232465  -0.0000014679  0.000015  0.000024  0.000084  0.000002
  7   -193.00232466  -0.0000000078  0.000008  0.000008  0.000028  0.000001
                 **** Energy Check signals convergence ****
              ***Rediagonalizing the Fockian in SOSCF/NRSCF***

               *****************************************************
               *                     SUCCESS                       *
               *           SCF CONVERGED AFTER   8 CYCLES          *
               *****************************************************

Old exchange energy                            =     -6.474650391 Eh
New exchange energy                            =     -6.474652217 Eh
Exchange energy change after final integration =     -0.000001826 Eh
Total energy after final integration           =   -193.002326485 Eh
Final COS-X integration done in                =     0.690 sec
Total Energy       :         -193.00232648 Eh           -5251.86030 eV
  Last Energy change         ...    4.6307e-10  Tolerance :   1.0000e-08
  Last MAX-Density change    ...    2.4425e-15  Tolerance :   1.0000e-07
             **** THE GBW FILE WAS UPDATED (acetone_OPT.gbw) ****
             **** DENSITY acetone_OPT.scfp WAS UPDATED ****
             **** ENERGY FILE WAS UPDATED (acetone_OPT.en.tmp) ****
             **** THE GBW FILE WAS UPDATED (acetone_OPT.gbw) ****
             **** DENSITY acetone_OPT.scfp WAS UPDATED ****
Total SCF time: 0 days 0 hours 0 min 4 sec 

Maximum memory used throughout the entire SCF-calculation: 64.5 MB

-------------------------   --------------------
FINAL SINGLE POINT ENERGY      -193.002326484605
-------------------------   --------------------



           ************************************************************
           *        Program running with 6 parallel MPI-processes     *
           *              working on a common directory               *
           ************************************************************
------------------------------------------------------------------------------
                         ORCA SCF GRADIENT CALCULATION
------------------------------------------------------------------------------

 ... reading COSX grid (gridx3)
Gradient of the Kohn-Sham DFT energy:
Kohn-Sham wavefunction type      ... RKS
Hartree-Fock exchange scaling    ...    0.250
Number of operators              ...    1
Number of atoms                  ...   10
Basis set dimensions             ...  160
Integral neglect threshold       ... 2.5e-11
Integral primitive cutoff        ... 2.5e-12
SHARK Integral package           ... ON

Nuc. rep. gradient       (SHARK) ... done (  0.0 sec)
HCore & Overlap gradient (SHARK) ... done (  0.0 sec)
RI-J gradient            (SHARK) ... done (  0.1 sec)
COSX-gradient                    ... done (  0.8 sec)
Exchange-correlation gradient    ... done

------------------
CARTESIAN GRADIENT
------------------

   1   C   :   -0.002289125    0.005930662   -0.004304320
   2   C   :    0.026020597   -0.021113535    0.003377343
   3   C   :   -0.006985490    0.001332940    0.003063466
   4   O   :   -0.013946739    0.011571382   -0.001756276
   5   H   :    0.000582139   -0.001426007    0.000991891
   6   H   :   -0.001831378    0.000225198   -0.000954958
   7   H   :   -0.000707265    0.001832885    0.000678920
   8   H   :   -0.001754177    0.000270352   -0.001034486
   9   H   :   -0.000697422    0.001894947    0.000646289
  10   H   :    0.001622016   -0.000373298   -0.000691658

Difference to translation invariance:
           :    0.0000131555    0.0001455265    0.0000162097

[...]
     18       0.000000   0.000000   0.000000   0.000000   0.000000   0.000000
     19       0.000000   0.000000   0.000000   0.000000   0.000000   0.000000
     20       0.000000   0.000000   0.000000   0.000000   0.000000   0.000000
     21       0.000000   0.000000   0.000000   0.000000   0.000000   0.000000
     22       0.000000   0.000000   0.000000   0.000000   0.000000   0.000000
     23       0.000000   0.000000   0.000000   0.000000   0.000000   0.000000
     24       0.000000   0.000000   0.000000   0.000000   0.000000   0.000000
     25       0.000000   0.000000   0.000000   0.000000   0.000000   0.000000
     26       0.000000   0.000000   0.000000   0.000000   0.000000   0.000000
     27       0.000000   0.000000   0.000000   0.000000   0.000000   0.000000
     28       0.000000   0.000000   0.000000   0.000000   0.000000   0.000000
     29       0.000000   0.000000   0.000000   0.000000   0.000000   0.000000
                  6          7          8          9         10         11    
      0       0.008422   0.013139  -0.148796   0.007110   0.065111  -0.021095
      1       0.013050   0.023979  -0.011520   0.013501  -0.152098  -0.194440
      2       0.013685   0.027035   0.102807   0.008486   0.107856   0.212210
      3      -0.000573   0.009096   0.098019  -0.109125  -0.069541  -0.105535
      4      -0.000687   0.011007  -0.081675  -0.167695  -0.070558   0.087471
      5       0.000643   0.014103   0.011801  -0.175952   0.094443  -0.011255
      6      -0.008252   0.015760  -0.004167   0.013053  -0.179307   0.219411
      7      -0.013680   0.025575   0.129672   0.008301   0.040858   0.035743
      8      -0.012397   0.023653  -0.126531   0.010344   0.073767  -0.184700
      9       0.000424  -0.027966   0.101866   0.032798   0.146291  -0.130201
     10       0.000157  -0.048413  -0.076284   0.060597   0.143948   0.101414
     11      -0.001100  -0.049223   0.017062   0.067899  -0.224579  -0.020635
     12      -0.136654   0.162454  -0.267805   0.125453   0.187423   0.043235
     13      -0.218257   0.262434   0.260536   0.198643  -0.425107  -0.403927
     14      -0.219721   0.267300  -0.100212   0.198929   0.320254   0.338652
     15       0.424195  -0.411885  -0.257517   0.008940   0.193380   0.028729
     16       0.031493  -0.002345  -0.103650  -0.164595  -0.072883  -0.153398
     17       0.094301  -0.043060   0.265700   0.390542  -0.023738   0.130465
     18      -0.212775   0.243923  -0.272681   0.117198   0.190563   0.020281
     19       0.294179  -0.251503  -0.077802   0.366357  -0.059016  -0.210356
     20       0.234663  -0.208669   0.270863  -0.193404  -0.064982   0.169026
     21      -0.286459  -0.245433   0.072696   0.380864  -0.105741   0.244632
     22       0.141633   0.186859   0.234455   0.171361   0.150326   0.005628
     23      -0.303962  -0.275775  -0.272814  -0.164510  -0.078781  -0.138260
     24       0.054859   0.071728   0.096579  -0.210772  -0.085132   0.173356
     25      -0.433092  -0.385391   0.264131   0.025141   0.176241  -0.004627
     26      -0.050291  -0.007309  -0.293299   0.344758  -0.085843  -0.102413
     27       0.154905   0.170365  -0.333398   0.117788  -0.513081   0.450765
     28       0.197253   0.236734   0.198462   0.179702   0.111925   0.005753
     29       0.239460   0.276756   0.001021   0.218200   0.208087  -0.263642
                 12         13         14         15         16         17    
      0       0.018426  -0.101214   0.122660  -0.049453   0.073974  -0.007046
      1       0.084749   0.071104  -0.040651  -0.084812   0.008472   0.075162
      2       0.049245  -0.049012  -0.033661  -0.087296  -0.053556  -0.069507
      3      -0.008139  -0.044904  -0.032805   0.095298  -0.155676   0.003539
      4      -0.012328  -0.042213   0.023412   0.151686  -0.151972  -0.001497
      5       0.017919   0.073804  -0.006870   0.155083   0.244361   0.001733
      6      -0.020110   0.122831   0.061102  -0.055075   0.001792  -0.084993
      7      -0.076605  -0.052908  -0.101074  -0.084763   0.065283  -0.000219
      8      -0.057768   0.012626   0.062749  -0.083567  -0.063614   0.057744
      9       0.001032  -0.013316  -0.080317  -0.018223   0.024511   0.002415
     10      -0.004885  -0.011835   0.063779  -0.027654   0.023982  -0.002084
     11       0.004407   0.019672  -0.011351  -0.029766  -0.038648   0.000180
     12      -0.078261   0.093466  -0.061317   0.118671  -0.100928   0.130876
     13      -0.200418  -0.235263   0.372977   0.201954   0.425673  -0.265944
     14      -0.105484   0.270627  -0.333670   0.183110  -0.355281   0.175975
     15      -0.012526   0.180273  -0.188272   0.099691  -0.153404   0.066113
     16       0.304151   0.162839  -0.184711  -0.252238   0.058259  -0.150262
     17      -0.443625  -0.161679   0.190902   0.338864  -0.185198   0.399104
     18      -0.009185   0.142042  -0.133802  -0.024324  -0.032335  -0.090219
     19      -0.342650   0.291455  -0.109241   0.376667   0.243774  -0.391952
     20       0.154756  -0.387159   0.292102  -0.188728   0.005817   0.144412
     21       0.455326   0.063624   0.085228   0.404307   0.254187   0.392138
     22       0.127374   0.098219   0.118878   0.042138   0.008905   0.153895
     23      -0.261787  -0.230268  -0.263625  -0.164599   0.043191  -0.110077
     24      -0.238008   0.349569   0.215255  -0.295464   0.101227   0.215520
     25       0.098493   0.169127   0.196463   0.113518  -0.145602  -0.079700
     26       0.255148  -0.361758  -0.215125   0.266876  -0.151073  -0.357440
     27      -0.016681  -0.340136  -0.441051   0.096332   0.494400   0.301780
     28       0.140445  -0.012362   0.003107   0.170043  -0.039639  -0.108116
     29       0.219087   0.112136   0.244840   0.224953  -0.259608  -0.135316
                 18         19         20         21         22         23    
      0      -0.015422   0.032096   0.010718  -0.035208  -0.011323   0.029038
      1      -0.094853  -0.002135   0.025217  -0.009700  -0.021069  -0.030091
      2       0.099876  -0.015042   0.035061   0.017127  -0.021765   0.011267
      3       0.057878   0.011147   0.004349   0.012500  -0.012862  -0.564198
      4       0.056901   0.011625   0.000906  -0.010139  -0.019398   0.442522
      5      -0.088904  -0.014991  -0.003460   0.001884  -0.026235  -0.084301
      6      -0.102422  -0.007331  -0.023479   0.004308  -0.018886   0.037462
      7      -0.020266   0.027081  -0.023475   0.033063  -0.021012  -0.021800
      8       0.090213  -0.020876  -0.028668  -0.023726  -0.017517  -0.000806
      9      -0.007213  -0.003083  -0.004641  -0.025589   0.002214   0.367355
     10      -0.007131  -0.003526   0.003245   0.019724   0.000452  -0.287536
     11       0.011160   0.004588  -0.000340  -0.004013   0.002454   0.055134
     12      -0.142310   0.112002  -0.235629  -0.079002   0.210792  -0.087256
     13       0.239925  -0.259824  -0.272350   0.318576   0.300828   0.196607
     14      -0.131138   0.143891  -0.368057  -0.085543   0.338114  -0.138455
     15       0.011672  -0.440835  -0.166138   0.473998   0.220758   0.108309
     16       0.159134  -0.005596  -0.094539   0.032939   0.116639  -0.060632
     17      -0.407218  -0.123023   0.205753   0.056701  -0.222389   0.125709
     18       0.135036  -0.203590   0.266579   0.171108  -0.233953   0.037665
     19       0.364763   0.336741  -0.013901  -0.308866  -0.052408  -0.172067
     20      -0.190414   0.195994  -0.291062  -0.162398   0.275348   0.009992
     21       0.359259   0.323739  -0.002615   0.302294  -0.084926   0.163001
     22       0.198872  -0.140828  -0.211987  -0.130760  -0.192228  -0.009110
     23      -0.175476   0.284118   0.283628   0.265373   0.250290   0.024544
     24       0.211142   0.094528   0.101802   0.068207   0.110170   0.106056
     25      -0.017484  -0.415517   0.209110  -0.454373   0.275500  -0.104905
     26      -0.362997  -0.094892  -0.223418  -0.037252  -0.233093  -0.111924
     27       0.254221  -0.264824   0.209896  -0.311212   0.255231  -0.228039
     28      -0.138329   0.105232   0.300621   0.071859   0.277047   0.059246
     29      -0.115587   0.127711   0.363588   0.083002   0.333445   0.094904
                 24         25         26         27         28         29    
      0      -0.011500   0.010793  -0.026373  -0.024837  -0.056845   0.062713
      1       0.028963  -0.028679  -0.041282  -0.039611   0.012180  -0.013013
      2      -0.019334   0.019342  -0.043423  -0.041979   0.022698  -0.024632
      3      -0.001129   0.000204  -0.000171  -0.000449  -0.000278   0.003078
      4      -0.001108  -0.000263  -0.000111  -0.001015  -0.000515  -0.002420
      5       0.001663  -0.000036   0.000161  -0.001173   0.000581   0.000407
      6       0.030771   0.030897   0.029310  -0.030479   0.021103   0.019394
      7      -0.010166  -0.009988   0.037530  -0.039552  -0.054400  -0.049277
      8      -0.016463  -0.017274   0.040822  -0.042259   0.036047   0.033178
      9       0.000111  -0.000636   0.000010  -0.000105   0.000136  -0.001133
     10       0.000101   0.000497  -0.000007  -0.000119   0.000225   0.000893
     11      -0.000147  -0.000096  -0.000015  -0.000127  -0.000269  -0.000141
     12      -0.254543   0.258547  -0.015209  -0.019559   0.525597  -0.573184
     13       0.010587  -0.009058  -0.009063  -0.007439  -0.010012   0.010653
     14       0.148272  -0.152306  -0.004199   0.000991  -0.317034   0.345970
     15       0.050257  -0.050062  -0.067704  -0.064961   0.012939  -0.014045
     16      -0.414409   0.407295   0.450333   0.431466  -0.167548   0.187415
     17      -0.206071   0.203355   0.211387   0.202432  -0.080487   0.088865
     18       0.345030  -0.338889   0.401076   0.385009   0.144562  -0.167510
     19       0.065459  -0.064449   0.057584   0.055306   0.029498  -0.033367
     20       0.278555  -0.272040   0.316035   0.303501   0.126150  -0.146389
     21      -0.038969  -0.039288   0.054206  -0.056483  -0.012860  -0.012369
     22       0.396394   0.401381  -0.394543   0.411792   0.150494   0.139049
     23       0.259498   0.261321  -0.252264   0.263770   0.109551   0.101718
     24      -0.347792  -0.346691  -0.415221   0.431818  -0.192389  -0.184291
     25      -0.038956  -0.038387  -0.031246   0.032149  -0.027703  -0.026444
     26      -0.244683  -0.244972  -0.278436   0.289548  -0.131042  -0.124210
     27       0.028085   0.027276   0.009734  -0.009678  -0.050812  -0.045648
     28      -0.231448  -0.240801  -0.026927   0.033997   0.530917   0.479576
     29       0.173495   0.181951   0.036793  -0.040510  -0.409773  -0.370400


-----------
IR SPECTRUM
-----------

 Mode   freq       eps      Int      T**2         TX        TY        TZ
       cm**-1   L/(mol*cm) km/mol    a.u.
----------------------------------------------------------------------------
  6:     25.42   0.000000    0.00  0.000006  (-0.000401  0.002246 -0.000842)
  7:    133.45   0.000003    0.01  0.000007  (-0.000632  0.002502  0.000112)
  8:    378.17   0.000320    1.62  0.000264  (-0.012686  0.009983 -0.001820)
  9:    490.58   0.000064    0.32  0.000041  (-0.001942 -0.003521 -0.004945)
 10:    537.48   0.002918   14.74  0.001694  (-0.019534 -0.019180  0.030733)
 11:    804.37   0.000304    1.54  0.000118  (-0.008430  0.006809 -0.000711)
 12:    872.02   0.000089    0.45  0.000032  (-0.003027 -0.001967  0.004335)
 13:    889.39   0.001090    5.51  0.000382  (-0.008722 -0.008715  0.015175)
 14:   1079.68   0.000001    0.01  0.000000  (-0.000435  0.000385 -0.000309)
 15:   1115.81   0.000658    3.32  0.000184  ( 0.003758  0.009179  0.009247)
 16:   1245.48   0.011818   59.73  0.002961  (-0.025781 -0.024967  0.040904)
 17:   1375.46   0.004143   20.94  0.000940  ( 0.023359 -0.019684  0.002638)
 18:   1385.25   0.016373   82.74  0.003689  ( 0.028122  0.027317 -0.046384)
 19:   1448.84   0.000105    0.53  0.000023  (-0.002749 -0.002557  0.002904)
 20:   1454.57   0.000219    1.10  0.000047  ( 0.005990 -0.003280 -0.000499)
 21:   1460.54   0.005677   28.69  0.001213  ( 0.027595 -0.020673  0.004912)
 22:   1478.34   0.004607   23.28  0.000972  ( 0.012414  0.020899  0.019532)
 23:   1824.87   0.037407  189.04  0.006397  (-0.062334  0.049288 -0.009055)
 24:   3048.92   0.000141    0.71  0.000014  ( 0.001658  0.001725 -0.002958)
 25:   3055.28   0.000984    4.97  0.000100  ( 0.007604 -0.006483  0.000803)
 26:   3114.31   0.000021    0.11  0.000002  ( 0.001123 -0.000631 -0.000687)
 27:   3121.15   0.002588   13.08  0.000259  (-0.007767 -0.009594 -0.010314)
 28:   3170.86   0.001912    9.66  0.000188  (-0.006136 -0.006742  0.010252)
 29:   3172.07   0.001039    5.25  0.000102  ( 0.008291 -0.005747  0.000690)

* The epsilon (eps) is given for a Dirac delta lineshape.
** The dipole moment derivative (T) already includes vibrational overlap.

The first frequency considered to be a vibration is 6
The total number of vibrations considered is 24


--------------------------
THERMOCHEMISTRY AT 298.15K
--------------------------

Temperature         ... 298.15 K
Pressure            ... 1.00 atm
Total Mass          ... 58.08 AMU

Throughout the following assumptions are being made:
  (1) The electronic state is orbitally nondegenerate
  (2) There are no thermally accessible electronically excited states
  (3) Hindered rotations indicated by low frequency modes are not
      treated as such but are treated as vibrations and this may
      cause some error
  (4) All equations used are the standard statistical mechanics
      equations for an ideal gas
  (5) All vibrations are strictly harmonic

freq.      25.42  E(vib)   ...       0.56 
freq.     133.45  E(vib)   ...       0.42 
freq.     378.17  E(vib)   ...       0.21 
freq.     490.58  E(vib)   ...       0.15 
freq.     537.48  E(vib)   ...       0.12 
freq.     804.37  E(vib)   ...       0.05 
freq.     872.02  E(vib)   ...       0.04 
freq.     889.39  E(vib)   ...       0.04 
freq.    1079.68  E(vib)   ...       0.02 
freq.    1115.81  E(vib)   ...       0.01 
freq.    1245.48  E(vib)   ...       0.01 
freq.    1375.46  E(vib)   ...       0.01 
freq.    1385.25  E(vib)   ...       0.00 
freq.    1448.84  E(vib)   ...       0.00 
freq.    1454.57  E(vib)   ...       0.00 
freq.    1460.54  E(vib)   ...       0.00 
freq.    1478.34  E(vib)   ...       0.00 
freq.    1824.87  E(vib)   ...       0.00 
freq.    3048.92  E(vib)   ...       0.00 
freq.    3055.28  E(vib)   ...       0.00 
freq.    3114.31  E(vib)   ...       0.00 
freq.    3121.15  E(vib)   ...       0.00 
freq.    3170.86  E(vib)   ...       0.00 
freq.    3172.07  E(vib)   ...       0.00 

------------
INNER ENERGY
------------

The inner energy is: U= E(el) + E(ZPE) + E(vib) + E(rot) + E(trans)
    E(el)   - is the total energy from the electronic structure calculation
              = E(kin-el) + E(nuc-el) + E(el-el) + E(nuc-nuc)
    E(ZPE)  - the the zero temperature vibrational energy from the frequency calculation
    E(vib)  - the the finite temperature correction to E(ZPE) due to population
              of excited vibrational states
    E(rot)  - is the rotational thermal energy
    E(trans)- is the translational thermal energy

Summary of contributions to the inner energy U:
Electronic energy                ...   -193.00312747 Eh
Zero point energy                ...      0.08356851 Eh      52.44 kcal/mol
Thermal vibrational correction   ...      0.00261866 Eh       1.64 kcal/mol
Thermal rotational correction    ...      0.00141627 Eh       0.89 kcal/mol
Thermal translational correction ...      0.00141627 Eh       0.89 kcal/mol
-----------------------------------------------------------------------
Total thermal energy                   -192.91410776 Eh


Summary of corrections to the electronic energy:
(perhaps to be used in another calculation)
Total thermal correction                  0.00545120 Eh       3.42 kcal/mol
Non-thermal (ZPE) correction              0.08356851 Eh      52.44 kcal/mol
-----------------------------------------------------------------------
Total correction                          0.08901971 Eh      55.86 kcal/mol


--------
ENTHALPY
--------

The enthalpy is H = U + kB*T
                kB is Boltzmann's constant
Total free energy                 ...   -192.91410776 Eh 
Thermal Enthalpy correction       ...      0.00094421 Eh       0.59 kcal/mol
-----------------------------------------------------------------------
Total Enthalpy                    ...   -192.91316355 Eh


Note: Only C1 symmetry has been detected, increase convergence thresholds 
      if your molecule has a higher symmetry. Symmetry factor of 1.0 is   
      used for the rotational entropy correction. 
 

Note: Rotational entropy computed according to Herzberg 
Infrared and Raman Spectra, Chapter V,1, Van Nostrand Reinhold, 1945 
Point Group:  C1, Symmetry Number:   1  
Rotational constants in cm-1:     0.341435     0.287079     0.165459 

Vibrational entropy computed according to the QRRHO of S. Grimme
Chem.Eur.J. 2012 18 9955


-------
ENTROPY
-------

The entropy contributions are T*S = T*(S(el)+S(vib)+S(rot)+S(trans))
     S(el)   - electronic entropy
     S(vib)  - vibrational entropy
     S(rot)  - rotational entropy
     S(trans)- translational entropy
The entropies will be listed as multiplied by the temperature to get
units of energy

Electronic entropy                ...      0.00000000 Eh      0.00 kcal/mol
Vibrational entropy               ...      0.00480308 Eh      3.01 kcal/mol
Rotational entropy                ...      0.01145659 Eh      7.19 kcal/mol
Translational entropy             ...      0.01810171 Eh     11.36 kcal/mol
-----------------------------------------------------------------------
Final entropy term                ...      0.03436138 Eh     21.56 kcal/mol

In case the symmetry of your molecule has not been determined correctly
or in case you have a reason to use a different symmetry number we print 
out the resulting rotational entropy values for sn=1,12 :
 --------------------------------------------------------
|  sn= 1 | S(rot)=       0.01145659 Eh      7.19 kcal/mol|
|  sn= 2 | S(rot)=       0.01080213 Eh      6.78 kcal/mol|
|  sn= 3 | S(rot)=       0.01041930 Eh      6.54 kcal/mol|
|  sn= 4 | S(rot)=       0.01014768 Eh      6.37 kcal/mol|
|  sn= 5 | S(rot)=       0.00993699 Eh      6.24 kcal/mol|
|  sn= 6 | S(rot)=       0.00976484 Eh      6.13 kcal/mol|
|  sn= 7 | S(rot)=       0.00961930 Eh      6.04 kcal/mol|
|  sn= 8 | S(rot)=       0.00949322 Eh      5.96 kcal/mol|
|  sn= 9 | S(rot)=       0.00938201 Eh      5.89 kcal/mol|
|  sn=10 | S(rot)=       0.00928253 Eh      5.82 kcal/mol|
|  sn=11 | S(rot)=       0.00919254 Eh      5.77 kcal/mol|
|  sn=12 | S(rot)=       0.00911039 Eh      5.72 kcal/mol|
 --------------------------------------------------------


-------------------
GIBBS FREE ENERGY
-------------------

The Gibbs free energy is G = H - T*S

Total enthalpy                    ...   -192.91316355 Eh 
Total entropy correction          ...     -0.03436138 Eh    -21.56 kcal/mol
-----------------------------------------------------------------------
Final Gibbs free energy         ...   -192.94752493 Eh

For completeness - the Gibbs free energy minus the electronic energy
G-E(el)                           ...      0.05560254 Eh     34.89 kcal/mol


Timings for individual modules:

Sum of individual times         ...      135.992 sec (=   2.267 min)
GTO integral calculation        ...        3.053 sec (=   0.051 min)   2.2 %
SCF iterations                  ...       71.375 sec (=   1.190 min)  52.5 %
SCF Gradient evaluation         ...       22.943 sec (=   0.382 min)  16.9 %
Geometry relaxation             ...        0.129 sec (=   0.002 min)   0.1 %
Analytical frequency calculation...       38.492 sec (=   0.642 min)  28.3 %
                             ****ORCA TERMINATED NORMALLY****
TOTAL RUN TIME: 0 days 0 hours 2 minutes 18 seconds 435 msec
