
                                 *****************
                                 * O   R   C   A *
                                 *****************

                                            #,                                       
                                            ###                                      
                                            ####                                     
                                            #####                                    
                                            ######                                   
                                           ########,                                 
                                     ,,################,,,,,                         
                               ,,#################################,,                 
                          ,,##########################################,,             
                       ,#########################################, ''#####,          
                    ,#############################################,,   '####,        
                  ,##################################################,,,,####,       
                ,###########''''           ''''###############################       
              ,#####''   ,,,,##########,,,,          '''####'''          '####       
            ,##' ,,,,###########################,,,                        '##       
           ' ,,###''''                  '''############,,,                           
         ,,##''                                '''############,,,,        ,,,,,,###''
      ,#''                                            '''#######################'''  
     '                                                          ''''####''''         
             ,#######,   #######,   ,#######,      ##                                
            ,#'     '#,  ##    ##  ,#'     '#,    #''#        ######   ,####,        
            ##       ##  ##   ,#'  ##            #'  '#       #        #'  '#        
            ##       ##  #######   ##           ,######,      #####,   #    #        
            '#,     ,#'  ##    ##  '#,     ,#' ,#      #,         ##   #,  ,#        
             '#######'   ##     ##  '#######'  #'      '#     #####' # '####'        



                  #######################################################
                  #                        -***-                        #
                  #          Department of theory and spectroscopy      #
                  #    Directorship and core code : Frank Neese         #
                  #        Max Planck Institute fuer Kohlenforschung    #
                  #                Kaiser Wilhelm Platz 1               #
                  #                 D-45470 Muelheim/Ruhr               #
                  #                      Germany                        #
                  #                                                     #
                  #                  All rights reserved                #
                  #                        -***-                        #
                  #######################################################


                         Program Version 5.0.1 -  RELEASE  -


 With contributions from (in alphabetic order):
   Daniel Aravena         : Magnetic Suceptibility
   Michael Atanasov       : Ab Initio Ligand Field Theory (pilot matlab implementation)
   Alexander A. Auer      : GIAO ZORA, VPT2 properties, NMR spectrum
   Ute Becker             : Parallelization
   Giovanni Bistoni       : ED, misc. LED, open-shell LED, HFLD
   Martin Brehm           : Molecular dynamics
   Dmytro Bykov           : SCF Hessian
   Vijay G. Chilkuri      : MRCI spin determinant printing, contributions to CSF-ICE
   Dipayan Datta          : RHF DLPNO-CCSD density
   Achintya Kumar Dutta   : EOM-CC, STEOM-CC
   Dmitry Ganyushin       : Spin-Orbit,Spin-Spin,Magnetic field MRCI
   Miquel Garcia          : C-PCM and meta-GGA Hessian, CC/C-PCM, Gaussian charge scheme
   Yang Guo               : DLPNO-NEVPT2, F12-NEVPT2, CIM, IAO-localization
   Andreas Hansen         : Spin unrestricted coupled pair/coupled cluster methods
   Benjamin Helmich-Paris : MC-RPA, TRAH-SCF, COSX integrals
   Lee Huntington         : MR-EOM, pCC
   Robert Izsak           : Overlap fitted RIJCOSX, COSX-SCS-MP3, EOM
   Marcus Kettner         : VPT2
   Christian Kollmar      : KDIIS, OOCD, Brueckner-CCSD(T), CCSD density, CASPT2, CASPT2-K
   Simone Kossmann        : Meta GGA functionals, TD-DFT gradient, OOMP2, MP2 Hessian
   Martin Krupicka        : Initial AUTO-CI
   Lucas Lang             : DCDCAS
   Marvin Lechner         : AUTO-CI (C++ implementation), FIC-MRCC
   Dagmar Lenk            : GEPOL surface, SMD
   Dimitrios Liakos       : Extrapolation schemes; Compound Job, initial MDCI parallelization
   Dimitrios Manganas     : Further ROCIS development; embedding schemes
   Dimitrios Pantazis     : SARC Basis sets
   Anastasios Papadopoulos: AUTO-CI, single reference methods and gradients
   Taras Petrenko         : DFT Hessian,TD-DFT gradient, ASA, ECA, R-Raman, ABS, FL, XAS/XES, NRVS
   Peter Pinski           : DLPNO-MP2, DLPNO-MP2 Gradient
   Christoph Reimann      : Effective Core Potentials
   Marius Retegan         : Local ZFS, SOC
   Christoph Riplinger    : Optimizer, TS searches, QM/MM, DLPNO-CCSD(T), (RO)-DLPNO pert. Triples
   Tobias Risthaus        : Range-separated hybrids, TD-DFT gradient, RPA, STAB
   Michael Roemelt        : Original ROCIS implementation
   Masaaki Saitow         : Open-shell DLPNO-CCSD energy and density
   Barbara Sandhoefer     : DKH picture change effects
   Avijit Sen             : IP-ROCIS
   Kantharuban Sivalingam : CASSCF convergence, NEVPT2, FIC-MRCI
   Bernardo de Souza      : ESD, SOC TD-DFT
   Georgi Stoychev        : AutoAux, RI-MP2 NMR, DLPNO-MP2 response
   Willem Van den Heuvel  : Paramagnetic NMR
   Boris Wezisla          : Elementary symmetry handling
   Frank Wennmohs         : Technical directorship


 We gratefully acknowledge several colleagues who have allowed us to
 interface, adapt or use parts of their codes:
   Stefan Grimme, W. Hujo, H. Kruse, P. Pracht,  : VdW corrections, initial TS optimization,
                  C. Bannwarth, S. Ehlert          DFT functionals, gCP, sTDA/sTD-DF
   Ed Valeev, F. Pavosevic, A. Kumar             : LibInt (2-el integral package), F12 methods
   Garnet Chan, S. Sharma, J. Yang, R. Olivares  : DMRG
   Ulf Ekstrom                                   : XCFun DFT Library
   Mihaly Kallay                                 : mrcc  (arbitrary order and MRCC methods)
   Jiri Pittner, Ondrej Demel                    : Mk-CCSD
   Frank Weinhold                                : gennbo (NPA and NBO analysis)
   Christopher J. Cramer and Donald G. Truhlar   : smd solvation model
   Lars Goerigk                                  : TD-DFT with DH, B97 family of functionals
   V. Asgeirsson, H. Jonsson                     : NEB implementation
   FAccTs GmbH                                   : IRC, NEB, NEB-TS, DLPNO-Multilevel, CI-OPT
                                                   MM, QMMM, 2- and 3-layer-ONIOM, Crystal-QMMM,
                                                   LR-CPCM, SF, NACMEs, symmetry and pop. for TD-DFT,
                                                   nearIR, NL-DFT gradient (VV10), updates on ESD,
                                                   ML-optimized integration grids
   S Lehtola, MJT Oliveira, MAL Marques          : LibXC Library
   Liviu Ungur et al                             : ANISO software


 Your calculation uses the libint2 library for the computation of 2-el integrals
 For citations please refer to: http://libint.valeyev.net

 Your ORCA version has been built with support for libXC version: 5.1.0
 For citations please refer to: https://tddft.org/programs/libxc/

 This ORCA versions uses:
   CBLAS   interface :  Fast vector & matrix operations
   LAPACKE interface :  Fast linear algebra routines
   SCALAPACK package :  Parallel linear algebra routines
   Shared memory     :  Shared parallel matrices
   BLAS/LAPACK       :  OpenBLAS 0.3.15  USE64BITINT DYNAMIC_ARCH NO_AFFINITY Zen SINGLE_THREADED
        Core in use  :  Zen
   Copyright (c) 2011-2014, The OpenBLAS Project




***************************************
The coordinates will be read from file: carbon_monoxide.xyz
***************************************


================================================================================

----- Orbital basis set information -----
Your calculation utilizes the basis: aug-cc-pVTZ 
    H, B-Ne : Obtained from the ccRepo (grant-hill.group.shef.ac.uk/ccrepo) Feb. 2017
              R. A. Kendall, T. H. Dunning, Jr., R. J. Harrison, J. Chem. Phys. 96, 6796 (1992)
         He : Obtained from the ccRepo (grant-hill.group.shef.ac.uk/ccrepo) Feb. 2017
              D. E. Woon, T. H. Dunning, Jr., J. Chem. Phys. 100, 2975 (1994)
  Li-Be, Na : Obtained from the ccRepo (grant-hill.group.shef.ac.uk/ccrepo) Feb. 2017
              B. P. Prascher, D. E. Woon, K. A. Peterson, T. H. Dunning, Jr., A. K. Wilson, Theor. Chem. Acc. 128, 69 (2011)
         Mg : Obtained from the Peterson Research Group Website (tyr0.chem.wsu.edu/~kipeters) Feb. 2017
              B. P. Prascher, D. E. Woon, K. A. Peterson, T. H. Dunning, Jr., A. K. Wilson, Theor. Chem. Acc. 128, 69 (2011)
      Al-Ar : Obtained from the ccRepo (grant-hill.group.shef.ac.uk/ccrepo) Feb. 2017
              D. E. Woon, T. H. Dunning, Jr., J. Chem. Phys. 98, 1358 (1993)
      Sc-Zn : Obtained from the ccRepo (grant-hill.group.shef.ac.uk/ccrepo) Feb. 2017
              N. B. Balabanov, K. A. Peterson, J. Chem. Phys. 123, 064107 (2005)
              N. B. Balabanov, K. A. Peterson, J. Chem. Phys. 125, 074110 (2006)
      Ga-Kr : Obtained from the ccRepo (grant-hill.group.shef.ac.uk/ccrepo) Feb. 2017
              A. K. Wilson, D. E. Woon, K. A. Peterson, T. H. Dunning, Jr., J. Chem. Phys. 110, 7667 (1999)
     Ag, Au : Obtained from the Peterson Research Group Website (tyr0.chem.wsu.edu/~kipeters) Feb. 2017
              K. A. Peterson, C. Puzzarini, Theor. Chem. Acc. 114, 283 (2005)

----- AuxJ basis set information -----
Your calculation utilizes the auxiliary basis: def2/J
   F. Weigend, Phys. Chem. Chem. Phys. 8, 1057 (2006).

================================================================================
                                        WARNINGS
                       Please study these warnings very carefully!
================================================================================



WARNING: Found flag for RIJCOSX approximation but no HF exchange needed!
  ===> : RIJCOSX  will be disabled and Split-RI-J is turned on

INFO   : the flag for use of the SHARK integral package has been found!

================================================================================
                                       INPUT FILE
================================================================================
NAME = carbon_monoxide_PBE.inp
|  1> 
|  2> %pal
|  3>   nprocs 6
|  4> end
|  5> %maxcore 2000
|  6> 
|  7> ! PBE aug-cc-pVTZ VeryTightSCF
|  8> ! RIJCOSX def2/J
|  9> 
| 10> * xyzfile 0 1 carbon_monoxide.xyz
| 11> 
| 12> 
| 13>                          ****END OF INPUT****
================================================================================

                       ****************************
                       * Single Point Calculation *
                       ****************************

---------------------------------
CARTESIAN COORDINATES (ANGSTROEM)
---------------------------------
  C    -27.875039   12.166670    0.000000
  O    -26.751621   12.166670    0.000000

----------------------------
CARTESIAN COORDINATES (A.U.)
----------------------------
  NO LB      ZA    FRAG     MASS         X           Y           Z
   0 C     6.0000    0    12.011  -52.676190   22.991674    0.000000
   1 O     8.0000    0    15.999  -50.553238   22.991674    0.000000

--------------------------------
INTERNAL COORDINATES (ANGSTROEM)
--------------------------------
 C      0   0   0     0.000000000000     0.00000000     0.00000000
 O      1   0   0     1.123417809669     0.00000000     0.00000000

---------------------------
INTERNAL COORDINATES (A.U.)
---------------------------
 C      0   0   0     0.000000000000     0.00000000     0.00000000
 O      1   0   0     2.122951994245     0.00000000     0.00000000

---------------------
BASIS SET INFORMATION
---------------------
There are 2 groups of distinct atoms

 Group   1 Type C   : 19s6p3d2f contracted to 5s4p3d2f pattern {88111/3111/111/11}
 Group   2 Type O   : 19s6p3d2f contracted to 5s4p3d2f pattern {88111/3111/111/11}

Atom   0C    basis set group =>   1
Atom   1O    basis set group =>   2
---------------------------------
AUXILIARY/J BASIS SET INFORMATION
---------------------------------
There are 2 groups of distinct atoms

 Group   1 Type C   : 12s5p4d2f1g contracted to 6s4p3d1f1g pattern {711111/2111/211/2/1}
 Group   2 Type O   : 12s5p4d2f1g contracted to 6s4p3d1f1g pattern {711111/2111/211/2/1}

Atom   0C    basis set group =>   1
Atom   1O    basis set group =>   2


           ************************************************************
           *        Program running with 6 parallel MPI-processes     *
           *              working on a common directory               *
           ************************************************************
------------------------------------------------------------------------------
                           ORCA GTO INTEGRAL CALCULATION
                           -- RI-GTO INTEGRALS CHOSEN --
------------------------------------------------------------------------------
------------------------------------------------------------------------------
                   ___                                                        
                  /   \      - P O W E R E D   B Y -                         
                 /     \                                                     
                 |  |  |   _    _      __       _____    __    __             
                 |  |  |  | |  | |    /  \     |  _  \  |  |  /  |          
                  \  \/   | |  | |   /    \    | | | |  |  | /  /          
                 / \  \   | |__| |  /  /\  \   | |_| |  |  |/  /          
                |  |  |   |  __  | /  /__\  \  |    /   |      \           
                |  |  |   | |  | | |   __   |  |    \   |  |\   \          
                \     /   | |  | | |  |  |  |  | |\  \  |  | \   \       
                 \___/    |_|  |_| |__|  |__|  |_| \__\ |__|  \__/        
                                                                              
                      - O R C A' S   B I G   F R I E N D -                    
                                      &                                       
                       - I N T E G R A L  F E E D E R -                       
                                                                              
 v1 FN, 2020, v2 2021                                                         
------------------------------------------------------------------------------


Reading SHARK input file carbon_monoxide_PBE.SHARKINP.tmp ... ok
----------------------
SHARK INTEGRAL PACKAGE
----------------------

Number of atoms                             ...      2
Number of basis functions                   ...     92
Number of shells                            ...     28
Maximum angular momentum                    ...      3
Integral batch strategy                     ... SHARK/LIBINT Hybrid
RI-J (if used) integral strategy            ... SPLIT-RIJ (Revised 2003 algorithm where possible)
Printlevel                                  ...      1
Contraction scheme used                     ... SEGMENTED contraction
Coulomb Range Separation                    ... NOT USED
Exchange Range Separation                   ... NOT USED
Finite Nucleus Model                        ... NOT USED
Auxiliary Coulomb fitting basis             ... AVAILABLE
   # of basis functions in Aux-J            ...     98
   # of shells in Aux-J                     ...     30
   Maximum angular momentum in Aux-J        ...      4
Auxiliary J/K fitting basis                 ... NOT available
Auxiliary Correlation fitting basis         ... NOT available
Auxiliary 'external' fitting basis          ... NOT available
Integral threshold                          ...     1.000000e-12
Primitive cut-off                           ...     1.000000e-14
Primitive pair pre-selection threshold      ...     1.000000e-14

Calculating pre-screening integrals         ... done (  0.0 sec) Dimension = 28
Organizing shell pair data                  ... done (  0.0 sec)
Shell pair information
Total number of shell pairs                 ...       406
Shell pairs after pre-screening             ...       406
Total number of primitive shell pairs       ...      1948
Primitive shell pairs kept                  ...      1788
          la=0 lb=0:     55 shell pairs
          la=1 lb=0:     80 shell pairs
          la=1 lb=1:     36 shell pairs
          la=2 lb=0:     60 shell pairs
          la=2 lb=1:     48 shell pairs
          la=2 lb=2:     21 shell pairs
          la=3 lb=0:     40 shell pairs
          la=3 lb=1:     32 shell pairs
          la=3 lb=2:     24 shell pairs
          la=3 lb=3:     10 shell pairs

Calculating one electron integrals          ... done (  0.0 sec)
Calculating RI/J V-Matrix + Cholesky decomp.... done (  0.0 sec)
Calculating Nuclear repulsion               ... done (  0.0 sec) ENN=     22.610026100510 Eh

SHARK setup successfully completed in   0.1 seconds

Maximum memory used throughout the entire GTOINT-calculation: 17.2 MB


           ************************************************************
           *        Program running with 6 parallel MPI-processes     *
           *              working on a common directory               *
           ************************************************************
-------------------------------------------------------------------------------
                                 ORCA SCF
-------------------------------------------------------------------------------

------------
SCF SETTINGS
------------
Hamiltonian:
 Density Functional     Method          .... DFT(GTOs)
 Exchange Functional    Exchange        .... PBE
   PBE kappa parameter   XKappa         ....  0.804000
   PBE mue parameter    XMuePBE         ....  0.219520
 Correlation Functional Correlation     .... PBE
   PBE beta parameter  CBetaPBE         ....  0.066725
 LDA part of GGA corr.  LDAOpt          .... PW91-LDA
 Gradients option       PostSCFGGA      .... off
   Density functional embedding theory  .... OFF
   NL short-range parameter             ....  6.400000
 RI-approximation to the Coulomb term is turned on
   Number of AuxJ basis functions       .... 98


General Settings:
 Integral files         IntName         .... carbon_monoxide_PBE
 Hartree-Fock type      HFTyp           .... RHF
 Total Charge           Charge          ....    0
 Multiplicity           Mult            ....    1
 Number of Electrons    NEL             ....   14
 Basis Dimension        Dim             ....   92
 Nuclear Repulsion      ENuc            ....     22.6100261005 Eh

Convergence Acceleration:
 DIIS                   CNVDIIS         .... on
   Start iteration      DIISMaxIt       ....    12
   Startup error        DIISStart       ....  0.200000
   # of expansion vecs  DIISMaxEq       ....     5
   Bias factor          DIISBfac        ....   1.050
   Max. coefficient     DIISMaxC        ....  10.000
 Trust-Rad. Augm. Hess. CNVTRAH         .... auto
   Auto Start mean grad. ratio tolernc. ....  1.125000
   Auto Start start iteration           ....    20
   Auto Start num. interpolation iter.  ....    10
   Max. Number of Micro iterations      ....    16
   Max. Number of Macro iterations      .... Maxiter - #DIIS iter
   Number of Davidson start vectors     ....     2
   Converg. threshold I  (grad. norm)   ....   2.000e-06
   Converg. threshold II (energy diff.) ....   1.000e-09
   Grad. Scal. Fac. for Micro threshold ....   0.100
   Minimum threshold for Micro iter.    ....   0.010
   NR start threshold (gradient norm)   ....   0.001
   Initial trust radius                 ....   0.400
   Minimum AH scaling param. (alpha)    ....   1.000
   Maximum AH scaling param. (alpha)    .... 1000.000
   Orbital update algorithm             .... Taylor
   White noise on init. David. guess    .... on
   Maximum white noise                  ....   0.010
   Quad. conv. algorithm                .... NR
 SOSCF                  CNVSOSCF        .... on
   Start iteration      SOSCFMaxIt      ....   150
   Startup grad/error   SOSCFStart      ....  0.003300
 Level Shifting         CNVShift        .... on
   Level shift para.    LevelShift      ....    0.2500
   Turn off err/grad.   ShiftErr        ....    0.0010
 Zerner damping         CNVZerner       .... off
 Static damping         CNVDamp         .... on
   Fraction old density DampFac         ....    0.7000
   Max. Damping (<1)    DampMax         ....    0.9800
   Min. Damping (>=0)   DampMin         ....    0.0000
   Turn off err/grad.   DampErr         ....    0.1000
 Fernandez-Rico         CNVRico         .... off

SCF Procedure:
 Maximum # iterations   MaxIter         ....   125
 SCF integral mode      SCFMode         .... Direct
   Integral package                     .... SHARK and LIBINT hybrid scheme
 Reset frequency        DirectResetFreq ....    20
 Integral Threshold     Thresh          ....  1.000e-12 Eh
 Primitive CutOff       TCut            ....  1.000e-14 Eh

Convergence Tolerance:
 Convergence Check Mode ConvCheckMode   .... Total+1el-Energy
 Convergence forced     ConvForced      .... 0
 Energy Change          TolE            ....  1.000e-09 Eh
 1-El. energy change                    ....  1.000e-06 Eh
 Orbital Gradient       TolG            ....  2.000e-06
 Orbital Rotation angle TolX            ....  2.000e-06
 DIIS Error             TolErr          ....  1.000e-08


Diagonalization of the overlap matrix:
Smallest eigenvalue                        ... 4.711e-04
Time for diagonalization                   ...    0.003 sec
Threshold for overlap eigenvalues          ... 1.000e-08
Number of eigenvalues below threshold      ... 0
Time for construction of square roots      ...    0.004 sec
Total time needed                          ...    0.007 sec

Time for model grid setup =    0.050 sec

------------------------------
INITIAL GUESS: MODEL POTENTIAL
------------------------------
Loading Hartree-Fock densities                     ... done
Calculating cut-offs                               ... done
Initializing the effective Hamiltonian             ... done
Setting up the integral package (SHARK)            ... done
Starting the Coulomb interaction                   ... done (   0.0 sec)
Reading the grid                                   ... done
Mapping shells                                     ... done
Starting the XC term evaluation                    ... done (   0.0 sec)
  promolecular density results
     # of electrons  =     14.000026639
     EX              =    -13.176859110
     EC              =     -0.445619550
     EX+EC           =    -13.622478660
Transforming the Hamiltonian                       ... done (   0.0 sec)
Diagonalizing the Hamiltonian                      ... done (   0.0 sec)
Back transforming the eigenvectors                 ... done (   0.0 sec)
Now organizing SCF variables                       ... done
                      ------------------
                      INITIAL GUESS DONE (   0.2 sec)
                      ------------------
-------------------
DFT GRID GENERATION
-------------------

General Integration Accuracy     IntAcc      ... 4.388
Radial Grid Type                 RadialGrid  ... OptM3 with GC (2021)
Angular Grid (max. ang.)         AngularGrid ... 4 (Lebedev-302)
Angular grid pruning method      GridPruning ... 4 (adaptive)
Weight generation scheme         WeightScheme... Becke
Basis function cutoff            BFCut       ... 1.0000e-12
Integration weight cutoff        WCut        ... 1.0000e-14
Angular grids for H and He will be reduced by one unit
Partially contracted basis set               ... off
Rotationally invariant grid construction     ... off

Total number of grid points                  ...    12895
Total number of batches                      ...      202
Average number of points per batch           ...       63
Average number of grid points per atom       ...     6448
Time for grid setup =    0.089 sec

--------------
SCF ITERATIONS
--------------
ITER       Energy         Delta-E        Max-DP      RMS-DP      [F,P]     Damp
               ***  Starting incremental Fock matrix formation  ***
  0   -113.1953464370   0.000000000000 0.02792613  0.00108061  0.1933191 0.7000
  1   -113.2138895452  -0.018543108243 0.01259310  0.00045433  0.0460015 0.7000
                               ***Turning on DIIS***
  2   -113.2171841044  -0.003294559135 0.02614844  0.00061625  0.0285282 0.0000
  3   -113.2297746463  -0.012590541955 0.01191018  0.00026931  0.0178075 0.0000
  4   -113.2302323321  -0.000457685747 0.00226348  0.00007906  0.0072825 0.0000
                      *** Initiating the SOSCF procedure ***
                           *** Shutting down DIIS ***
                      *** Re-Reading the Fockian *** 
                      *** Removing any level shift *** 
ITER      Energy       Delta-E        Grad      Rot      Max-DP    RMS-DP
  5   -113.23029281  -0.0000604752  0.000295  0.000295  0.000394  0.000016
               *** Restarting incremental Fock matrix formation ***
  6   -113.23029475  -0.0000019421  0.000072  0.000206  0.000325  0.000009
  7   -113.23029482  -0.0000000684  0.000041  0.000079  0.000104  0.000003
  8   -113.23029479   0.0000000326  0.000085  0.000063  0.000086  0.000003
  9   -113.23029483  -0.0000000401  0.000004  0.000009  0.000008  0.000000
 10   -113.23029483  -0.0000000001  0.000003  0.000004  0.000004  0.000000
                 **** Energy Check signals convergence ****
              ***Rediagonalizing the Fockian in SOSCF/NRSCF***

               *****************************************************
               *                     SUCCESS                       *
               *           SCF CONVERGED AFTER  11 CYCLES          *
               *****************************************************


----------------
TOTAL SCF ENERGY
----------------

Total Energy       :         -113.23029483 Eh           -3081.15296 eV

Components:
Nuclear Repulsion  :           22.61002610 Eh             615.25009 eV
Electronic Energy  :         -135.84032093 Eh           -3696.40305 eV
One Electron Energy:         -198.50033063 Eh           -5401.46860 eV
Two Electron Energy:           62.66000971 Eh            1705.06555 eV

Virial components:
Potential Energy   :         -225.88865602 Eh           -6146.74282 eV
Kinetic Energy     :          112.65836119 Eh            3065.58986 eV
Virial Ratio       :            2.00507671


DFT components:
N(Alpha)           :        7.000006321290 electrons
N(Beta)            :        7.000006321290 electrons
N(Total)           :       14.000012642580 electrons
E(X)               :      -13.309360146391 Eh       
E(C)               :       -0.448702753884 Eh       
E(XC)              :      -13.758062900275 Eh       
DFET-embed. en.    :        0.000000000000 Eh       

---------------
SCF CONVERGENCE
---------------

  Last Energy change         ...   -1.3203e-10  Tolerance :   1.0000e-09
  Last MAX-Density change    ...    2.4317e-07  Tolerance :   1.0000e-08
  Last RMS-Density change    ...    6.8771e-09  Tolerance :   1.0000e-09
  Last Orbital Gradient      ...    1.2172e-07  Tolerance :   2.0000e-06
  Last Orbital Rotation      ...    1.1752e-07  Tolerance :   2.0000e-06

             **** THE GBW FILE WAS UPDATED (carbon_monoxide_PBE.gbw) ****
             **** DENSITY carbon_monoxide_PBE.scfp WAS UPDATED ****
             **** ENERGY FILE WAS UPDATED (carbon_monoxide_PBE.en.tmp) ****
             **** THE GBW FILE WAS UPDATED (carbon_monoxide_PBE.gbw) ****
             **** DENSITY carbon_monoxide_PBE.scfp WAS UPDATED ****
----------------
ORBITAL ENERGIES
----------------

  NO   OCC          E(Eh)            E(eV) 
   0   2.0000     -18.862354      -513.2708 
   1   2.0000      -9.999589      -272.1026 
   2   2.0000      -1.081027       -29.4162 
   3   2.0000      -0.519596       -14.1389 
   4   2.0000      -0.437591       -11.9075 
   5   2.0000      -0.437591       -11.9075 
   6   2.0000      -0.331860        -9.0304 
   7   0.0000      -0.071968        -1.9583 
   8   0.0000      -0.071968        -1.9583 
   9   0.0000       0.015940         0.4337 
  10   0.0000       0.042190         1.1480 
  11   0.0000       0.047519         1.2931 
  12   0.0000       0.047519         1.2931 
  13   0.0000       0.118506         3.2247 
  14   0.0000       0.131917         3.5897 
  15   0.0000       0.131917         3.5897 
  16   0.0000       0.183083         4.9819 
  17   0.0000       0.195745         5.3265 
  18   0.0000       0.195745         5.3265 
  19   0.0000       0.286306         7.7908 
  20   0.0000       0.302487         8.2311 
  21   0.0000       0.302487         8.2311 
  22   0.0000       0.366100         9.9621 
  23   0.0000       0.366100         9.9621 
  24   0.0000       0.386593        10.5197 
  25   0.0000       0.513415        13.9707 
  26   0.0000       0.547853        14.9078 
  27   0.0000       0.555835        15.1250 
  28   0.0000       0.555835        15.1250 
  29   0.0000       0.639513        17.4020 
  30   0.0000       0.639513        17.4020 
  31   0.0000       0.787140        21.4192 
  32   0.0000       0.826899        22.5011 
  33   0.0000       0.826899        22.5011 
  34   0.0000       0.861572        23.4446 
  35   0.0000       0.861572        23.4446 
  36   0.0000       0.895026        24.3549 
  37   0.0000       0.895026        24.3549 
  38   0.0000       1.015863        27.6430 
  39   0.0000       1.015863        27.6430 
  40   0.0000       1.053166        28.6581 
  41   0.0000       1.088033        29.6069 
  42   0.0000       1.088033        29.6069 
  43   0.0000       1.147016        31.2119 
  44   0.0000       1.235305        33.6144 
  45   0.0000       1.245208        33.8838 
  46   0.0000       1.245208        33.8838 
  47   0.0000       1.829432        49.7814 
  48   0.0000       1.829433        49.7814 
  49   0.0000       1.852310        50.4039 
  50   0.0000       1.852310        50.4039 
  51   0.0000       1.953638        53.1612 
  52   0.0000       1.953638        53.1612 
  53   0.0000       1.995885        54.3108 
  54   0.0000       2.117767        57.6274 
  55   0.0000       2.224880        60.5421 
  56   0.0000       2.224880        60.5421 
  57   0.0000       2.277356        61.9700 
  58   0.0000       2.277357        61.9700 
  59   0.0000       2.323672        63.2303 
  60   0.0000       2.593765        70.5799 
  61   0.0000       2.593765        70.5799 
  62   0.0000       2.992634        81.4337 
  63   0.0000       2.992634        81.4337 
  64   0.0000       3.063769        83.3694 
  65   0.0000       3.063769        83.3694 
  66   0.0000       3.081198        83.8437 
  67   0.0000       3.225611        87.7733 
  68   0.0000       3.225611        87.7733 
  69   0.0000       3.358084        91.3781 
  70   0.0000       3.358084        91.3781 
  71   0.0000       3.478817        94.6634 
  72   0.0000       3.478817        94.6634 
  73   0.0000       3.560053        96.8740 
  74   0.0000       3.889964       105.8513 
  75   0.0000       4.691107       127.6515 
  76   0.0000       4.691107       127.6515 
  77   0.0000       4.740418       128.9933 
  78   0.0000       5.894959       160.4100 
  79   0.0000       5.894959       160.4100 
  80   0.0000       6.172935       167.9741 
  81   0.0000       6.172935       167.9741 
  82   0.0000       6.369627       173.3264 
  83   0.0000       6.369640       173.3267 
  84   0.0000       6.518301       177.3720 
  85   0.0000       6.518301       177.3720 
  86   0.0000       6.601406       179.6334 
  87   0.0000       6.771312       184.2568 
  88   0.0000       6.771312       184.2568 
  89   0.0000       6.941411       188.8854 
  90   0.0000      11.760084       320.0082 
  91   0.0000      14.445646       393.0860 

                    ********************************
                    * MULLIKEN POPULATION ANALYSIS *
                    ********************************

-----------------------
MULLIKEN ATOMIC CHARGES
-----------------------
   0 C :    0.075424
   1 O :   -0.075424
Sum of atomic charges:    0.0000000

--------------------------------
MULLIKEN REDUCED ORBITAL CHARGES
--------------------------------
  0 C s       :     3.790111  s :     3.790111
      pz      :     0.522641  p :     2.015164
      px      :     0.969881
      py      :     0.522641
      dz2     :     0.007849  d :     0.101246
      dxz     :     0.034924
      dyz     :     0.000000
      dx2y2   :     0.023548
      dxy     :     0.034924
      f0      :     0.002263  f :     0.018056
      f+1     :     0.002245
      f-1     :     0.000377
      f+2     :     0.003772
      f-2     :    -0.000000
      f+3     :     0.003742
      f-3     :     0.005657
  1 O s       :     3.826604  s :     3.826604
      pz      :     1.420722  p :     4.198466
      px      :     1.357022
      py      :     1.420722
      dz2     :     0.004882  d :     0.047725
      dxz     :     0.014097
      dyz     :     0.000000
      dx2y2   :     0.014647
      dxy     :     0.014097
      f0      :     0.000593  f :     0.002630
      f+1     :    -0.000199
      f-1     :     0.000099
      f+2     :     0.000988
      f-2     :    -0.000000
      f+3     :    -0.000332
      f-3     :     0.001482


                     *******************************
                     * LOEWDIN POPULATION ANALYSIS *
                     *******************************

----------------------
LOEWDIN ATOMIC CHARGES
----------------------
   0 C :   -0.193892
   1 O :    0.193892

-------------------------------
LOEWDIN REDUCED ORBITAL CHARGES
-------------------------------
  0 C s       :     3.246327  s :     3.246327
      pz      :     0.530334  p :     2.275957
      px      :     1.215290
      py      :     0.530334
      dz2     :     0.054749  d :     0.431506
      dxz     :     0.106255
      dyz     :     0.000000
      dx2y2   :     0.164247
      dxy     :     0.106255
      f0      :     0.027114  f :     0.240101
      f+1     :     0.035810
      f-1     :     0.004519
      f+2     :     0.045190
      f-2     :     0.000000
      f+3     :     0.059683
      f-3     :     0.067785
  1 O s       :     3.394952  s :     3.394952
      pz      :     1.243839  p :     4.138222
      px      :     1.650544
      py      :     1.243839
      dz2     :     0.035528  d :     0.205318
      dxz     :     0.031603
      dyz     :     0.000000
      dx2y2   :     0.106585
      dxy     :     0.031603
      f0      :     0.005874  f :     0.067615
      f+1     :     0.013607
      f-1     :     0.000979
      f+2     :     0.009791
      f-2     :     0.000000
      f+3     :     0.022678
      f-3     :     0.014686


                      *****************************
                      * MAYER POPULATION ANALYSIS *
                      *****************************

  NA   - Mulliken gross atomic population
  ZA   - Total nuclear charge
  QA   - Mulliken gross atomic charge
  VA   - Mayer's total valence
  BVA  - Mayer's bonded valence
  FA   - Mayer's free valence

  ATOM       NA         ZA         QA         VA         BVA        FA
  0 C      5.9246     6.0000     0.0754     2.5657     2.5657     0.0000
  1 O      8.0754     8.0000    -0.0754     2.5657     2.5657     0.0000

  Mayer bond orders larger than 0.100000
B(  0-C ,  1-O ) :   2.5657 

-------
TIMINGS
-------

Total SCF time: 0 days 0 hours 0 min 0 sec 

Total time                  ....       0.911 sec
Sum of individual times     ....       0.774 sec  ( 84.9%)

Fock matrix formation       ....       0.416 sec  ( 45.6%)
  Split-RI-J                ....       0.143 sec  ( 34.5% of F)
  XC integration            ....       0.236 sec  ( 56.8% of F)
    Basis function eval.    ....       0.054 sec  ( 22.9% of XC)
    Density eval.           ....       0.046 sec  ( 19.6% of XC)
    XC-Functional eval.     ....       0.015 sec  (  6.5% of XC)
    XC-Potential eval.      ....       0.060 sec  ( 25.4% of XC)
Diagonalization             ....       0.019 sec  (  2.1%)
Density matrix formation    ....       0.004 sec  (  0.5%)
Population analysis         ....       0.015 sec  (  1.6%)
Initial guess               ....       0.111 sec  ( 12.2%)
Orbital Transformation      ....       0.000 sec  (  0.0%)
Orbital Orthonormalization  ....       0.000 sec  (  0.0%)
DIIS solution               ....       0.033 sec  (  3.6%)
SOSCF solution              ....       0.037 sec  (  4.1%)
Grid generation             ....       0.139 sec  ( 15.2%)

Maximum memory used throughout the entire SCF-calculation: 7.4 MB

-------------------------   --------------------
FINAL SINGLE POINT ENERGY      -113.230294825325
-------------------------   --------------------


                            ***************************************
                            *     ORCA property calculations      *
                            ***************************************

                                    ---------------------
                                    Active property flags
                                    ---------------------
   (+) Dipole Moment


------------------------------------------------------------------------------
                       ORCA ELECTRIC PROPERTIES CALCULATION
------------------------------------------------------------------------------

Dipole Moment Calculation                       ... on
Quadrupole Moment Calculation                   ... off
Polarizability Calculation                      ... off
GBWName                                         ... carbon_monoxide_PBE.gbw
Electron density                                ... carbon_monoxide_PBE.scfp
The origin for moment calculation is the CENTER OF MASS  = (-51.463583, 22.991674  0.000000)

-------------
DIPOLE MOMENT
-------------
                                X             Y             Z
Electronic contribution:      0.08694       0.00000      -0.00000
Nuclear contribution   :      0.00712       0.00000       0.00000
                        -----------------------------------------
Total Dipole Moment    :      0.09407       0.00000      -0.00000
                        -----------------------------------------
Magnitude (a.u.)       :      0.09407
Magnitude (Debye)      :      0.23909



--------------------
Rotational spectrum 
--------------------
 
Rotational constants in cm-1:     0.000000     1.946953     1.946953 
Rotational constants in MHz :     0.000000 58368.172843 58368.172843 

 Dipole components along the rotational axes: 
x,y,z [a.u.] :     0.094065     0.000000    -0.000000 
x,y,z [Debye]:     0.239094     0.000000    -0.000000 

 

Timings for individual modules:

Sum of individual times         ...        1.290 sec (=   0.021 min)
GTO integral calculation        ...        0.264 sec (=   0.004 min)  20.5 %
SCF iterations                  ...        1.026 sec (=   0.017 min)  79.5 %
                             ****ORCA TERMINATED NORMALLY****
TOTAL RUN TIME: 0 days 0 hours 0 minutes 1 seconds 502 msec
