
                                 *****************
                                 * O   R   C   A *
                                 *****************

                                            #,                                       
                                            ###                                      
                                            ####                                     
                                            #####                                    
                                            ######                                   
                                           ########,                                 
                                     ,,################,,,,,                         
                               ,,#################################,,                 
                          ,,##########################################,,             
                       ,#########################################, ''#####,          
                    ,#############################################,,   '####,        
                  ,##################################################,,,,####,       
                ,###########''''           ''''###############################       
              ,#####''   ,,,,##########,,,,          '''####'''          '####       
            ,##' ,,,,###########################,,,                        '##       
           ' ,,###''''                  '''############,,,                           
         ,,##''                                '''############,,,,        ,,,,,,###''
      ,#''                                            '''#######################'''  
     '                                                          ''''####''''         
             ,#######,   #######,   ,#######,      ##                                
            ,#'     '#,  ##    ##  ,#'     '#,    #''#        ######   ,####,        
            ##       ##  ##   ,#'  ##            #'  '#       #        #'  '#        
            ##       ##  #######   ##           ,######,      #####,   #    #        
            '#,     ,#'  ##    ##  '#,     ,#' ,#      #,         ##   #,  ,#        
             '#######'   ##     ##  '#######'  #'      '#     #####' # '####'        



                  #######################################################
                  #                        -***-                        #
                  #          Department of theory and spectroscopy      #
                  #    Directorship and core code : Frank Neese         #
                  #        Max Planck Institute fuer Kohlenforschung    #
                  #                Kaiser Wilhelm Platz 1               #
                  #                 D-45470 Muelheim/Ruhr               #
                  #                      Germany                        #
                  #                                                     #
                  #                  All rights reserved                #
                  #                        -***-                        #
                  #######################################################


                         Program Version 5.0.1 -  RELEASE  -


 With contributions from (in alphabetic order):
   Daniel Aravena         : Magnetic Suceptibility
   Michael Atanasov       : Ab Initio Ligand Field Theory (pilot matlab implementation)
   Alexander A. Auer      : GIAO ZORA, VPT2 properties, NMR spectrum
   Ute Becker             : Parallelization
   Giovanni Bistoni       : ED, misc. LED, open-shell LED, HFLD
   Martin Brehm           : Molecular dynamics
   Dmytro Bykov           : SCF Hessian
   Vijay G. Chilkuri      : MRCI spin determinant printing, contributions to CSF-ICE
   Dipayan Datta          : RHF DLPNO-CCSD density
   Achintya Kumar Dutta   : EOM-CC, STEOM-CC
   Dmitry Ganyushin       : Spin-Orbit,Spin-Spin,Magnetic field MRCI
   Miquel Garcia          : C-PCM and meta-GGA Hessian, CC/C-PCM, Gaussian charge scheme
   Yang Guo               : DLPNO-NEVPT2, F12-NEVPT2, CIM, IAO-localization
   Andreas Hansen         : Spin unrestricted coupled pair/coupled cluster methods
   Benjamin Helmich-Paris : MC-RPA, TRAH-SCF, COSX integrals
   Lee Huntington         : MR-EOM, pCC
   Robert Izsak           : Overlap fitted RIJCOSX, COSX-SCS-MP3, EOM
   Marcus Kettner         : VPT2
   Christian Kollmar      : KDIIS, OOCD, Brueckner-CCSD(T), CCSD density, CASPT2, CASPT2-K
   Simone Kossmann        : Meta GGA functionals, TD-DFT gradient, OOMP2, MP2 Hessian
   Martin Krupicka        : Initial AUTO-CI
   Lucas Lang             : DCDCAS
   Marvin Lechner         : AUTO-CI (C++ implementation), FIC-MRCC
   Dagmar Lenk            : GEPOL surface, SMD
   Dimitrios Liakos       : Extrapolation schemes; Compound Job, initial MDCI parallelization
   Dimitrios Manganas     : Further ROCIS development; embedding schemes
   Dimitrios Pantazis     : SARC Basis sets
   Anastasios Papadopoulos: AUTO-CI, single reference methods and gradients
   Taras Petrenko         : DFT Hessian,TD-DFT gradient, ASA, ECA, R-Raman, ABS, FL, XAS/XES, NRVS
   Peter Pinski           : DLPNO-MP2, DLPNO-MP2 Gradient
   Christoph Reimann      : Effective Core Potentials
   Marius Retegan         : Local ZFS, SOC
   Christoph Riplinger    : Optimizer, TS searches, QM/MM, DLPNO-CCSD(T), (RO)-DLPNO pert. Triples
   Tobias Risthaus        : Range-separated hybrids, TD-DFT gradient, RPA, STAB
   Michael Roemelt        : Original ROCIS implementation
   Masaaki Saitow         : Open-shell DLPNO-CCSD energy and density
   Barbara Sandhoefer     : DKH picture change effects
   Avijit Sen             : IP-ROCIS
   Kantharuban Sivalingam : CASSCF convergence, NEVPT2, FIC-MRCI
   Bernardo de Souza      : ESD, SOC TD-DFT
   Georgi Stoychev        : AutoAux, RI-MP2 NMR, DLPNO-MP2 response
   Willem Van den Heuvel  : Paramagnetic NMR
   Boris Wezisla          : Elementary symmetry handling
   Frank Wennmohs         : Technical directorship


 We gratefully acknowledge several colleagues who have allowed us to
 interface, adapt or use parts of their codes:
   Stefan Grimme, W. Hujo, H. Kruse, P. Pracht,  : VdW corrections, initial TS optimization,
                  C. Bannwarth, S. Ehlert          DFT functionals, gCP, sTDA/sTD-DF
   Ed Valeev, F. Pavosevic, A. Kumar             : LibInt (2-el integral package), F12 methods
   Garnet Chan, S. Sharma, J. Yang, R. Olivares  : DMRG
   Ulf Ekstrom                                   : XCFun DFT Library
   Mihaly Kallay                                 : mrcc  (arbitrary order and MRCC methods)
   Jiri Pittner, Ondrej Demel                    : Mk-CCSD
   Frank Weinhold                                : gennbo (NPA and NBO analysis)
   Christopher J. Cramer and Donald G. Truhlar   : smd solvation model
   Lars Goerigk                                  : TD-DFT with DH, B97 family of functionals
   V. Asgeirsson, H. Jonsson                     : NEB implementation
   FAccTs GmbH                                   : IRC, NEB, NEB-TS, DLPNO-Multilevel, CI-OPT
                                                   MM, QMMM, 2- and 3-layer-ONIOM, Crystal-QMMM,
                                                   LR-CPCM, SF, NACMEs, symmetry and pop. for TD-DFT,
                                                   nearIR, NL-DFT gradient (VV10), updates on ESD,
                                                   ML-optimized integration grids
   S Lehtola, MJT Oliveira, MAL Marques          : LibXC Library
   Liviu Ungur et al                             : ANISO software


 Your calculation uses the libint2 library for the computation of 2-el integrals
 For citations please refer to: http://libint.valeyev.net

 Your ORCA version has been built with support for libXC version: 5.1.0
 For citations please refer to: https://tddft.org/programs/libxc/

 This ORCA versions uses:
   CBLAS   interface :  Fast vector & matrix operations
   LAPACKE interface :  Fast linear algebra routines
   SCALAPACK package :  Parallel linear algebra routines
   Shared memory     :  Shared parallel matrices
   BLAS/LAPACK       :  OpenBLAS 0.3.15  USE64BITINT DYNAMIC_ARCH NO_AFFINITY Zen SINGLE_THREADED
        Core in use  :  Zen
   Copyright (c) 2011-2014, The OpenBLAS Project




***************************************
The coordinates will be read from file: carbon_monoxide.xyz
***************************************


================================================================================

----- Orbital basis set information -----
Your calculation utilizes the basis: aug-cc-pVTZ 
    H, B-Ne : Obtained from the ccRepo (grant-hill.group.shef.ac.uk/ccrepo) Feb. 2017
              R. A. Kendall, T. H. Dunning, Jr., R. J. Harrison, J. Chem. Phys. 96, 6796 (1992)
         He : Obtained from the ccRepo (grant-hill.group.shef.ac.uk/ccrepo) Feb. 2017
              D. E. Woon, T. H. Dunning, Jr., J. Chem. Phys. 100, 2975 (1994)
  Li-Be, Na : Obtained from the ccRepo (grant-hill.group.shef.ac.uk/ccrepo) Feb. 2017
              B. P. Prascher, D. E. Woon, K. A. Peterson, T. H. Dunning, Jr., A. K. Wilson, Theor. Chem. Acc. 128, 69 (2011)
         Mg : Obtained from the Peterson Research Group Website (tyr0.chem.wsu.edu/~kipeters) Feb. 2017
              B. P. Prascher, D. E. Woon, K. A. Peterson, T. H. Dunning, Jr., A. K. Wilson, Theor. Chem. Acc. 128, 69 (2011)
      Al-Ar : Obtained from the ccRepo (grant-hill.group.shef.ac.uk/ccrepo) Feb. 2017
              D. E. Woon, T. H. Dunning, Jr., J. Chem. Phys. 98, 1358 (1993)
      Sc-Zn : Obtained from the ccRepo (grant-hill.group.shef.ac.uk/ccrepo) Feb. 2017
              N. B. Balabanov, K. A. Peterson, J. Chem. Phys. 123, 064107 (2005)
              N. B. Balabanov, K. A. Peterson, J. Chem. Phys. 125, 074110 (2006)
      Ga-Kr : Obtained from the ccRepo (grant-hill.group.shef.ac.uk/ccrepo) Feb. 2017
              A. K. Wilson, D. E. Woon, K. A. Peterson, T. H. Dunning, Jr., J. Chem. Phys. 110, 7667 (1999)
     Ag, Au : Obtained from the Peterson Research Group Website (tyr0.chem.wsu.edu/~kipeters) Feb. 2017
              K. A. Peterson, C. Puzzarini, Theor. Chem. Acc. 114, 283 (2005)

----- AuxJ basis set information -----
Your calculation utilizes the auxiliary basis: def2/J
   F. Weigend, Phys. Chem. Chem. Phys. 8, 1057 (2006).

================================================================================
                                        WARNINGS
                       Please study these warnings very carefully!
================================================================================


INFO   : the flag for use of the SHARK integral package has been found!

================================================================================
                                       INPUT FILE
================================================================================
NAME = carbon_monoxide_B3LYP.inp
|  1> 
|  2> %pal
|  3>   nprocs 6
|  4> end
|  5> %maxcore 2000
|  6> 
|  7> ! B3LYP aug-cc-pVTZ VeryTightSCF
|  8> ! RIJCOSX def2/J
|  9> 
| 10> * xyzfile 0 1 carbon_monoxide.xyz
| 11> 
| 12> 
| 13>                          ****END OF INPUT****
================================================================================

                       ****************************
                       * Single Point Calculation *
                       ****************************

---------------------------------
CARTESIAN COORDINATES (ANGSTROEM)
---------------------------------
  C    -27.875039   12.166670    0.000000
  O    -26.751621   12.166670    0.000000

----------------------------
CARTESIAN COORDINATES (A.U.)
----------------------------
  NO LB      ZA    FRAG     MASS         X           Y           Z
   0 C     6.0000    0    12.011  -52.676190   22.991674    0.000000
   1 O     8.0000    0    15.999  -50.553238   22.991674    0.000000

--------------------------------
INTERNAL COORDINATES (ANGSTROEM)
--------------------------------
 C      0   0   0     0.000000000000     0.00000000     0.00000000
 O      1   0   0     1.123417809669     0.00000000     0.00000000

---------------------------
INTERNAL COORDINATES (A.U.)
---------------------------
 C      0   0   0     0.000000000000     0.00000000     0.00000000
 O      1   0   0     2.122951994245     0.00000000     0.00000000

---------------------
BASIS SET INFORMATION
---------------------
There are 2 groups of distinct atoms

 Group   1 Type C   : 19s6p3d2f contracted to 5s4p3d2f pattern {88111/3111/111/11}
 Group   2 Type O   : 19s6p3d2f contracted to 5s4p3d2f pattern {88111/3111/111/11}

Atom   0C    basis set group =>   1
Atom   1O    basis set group =>   2
---------------------------------
AUXILIARY/J BASIS SET INFORMATION
---------------------------------
There are 2 groups of distinct atoms

 Group   1 Type C   : 12s5p4d2f1g contracted to 6s4p3d1f1g pattern {711111/2111/211/2/1}
 Group   2 Type O   : 12s5p4d2f1g contracted to 6s4p3d1f1g pattern {711111/2111/211/2/1}

Atom   0C    basis set group =>   1
Atom   1O    basis set group =>   2


           ************************************************************
           *        Program running with 6 parallel MPI-processes     *
           *              working on a common directory               *
           ************************************************************
------------------------------------------------------------------------------
                           ORCA GTO INTEGRAL CALCULATION
                           -- RI-GTO INTEGRALS CHOSEN --
------------------------------------------------------------------------------
------------------------------------------------------------------------------
                   ___                                                        
                  /   \      - P O W E R E D   B Y -                         
                 /     \                                                     
                 |  |  |   _    _      __       _____    __    __             
                 |  |  |  | |  | |    /  \     |  _  \  |  |  /  |          
                  \  \/   | |  | |   /    \    | | | |  |  | /  /          
                 / \  \   | |__| |  /  /\  \   | |_| |  |  |/  /          
                |  |  |   |  __  | /  /__\  \  |    /   |      \           
                |  |  |   | |  | | |   __   |  |    \   |  |\   \          
                \     /   | |  | | |  |  |  |  | |\  \  |  | \   \       
                 \___/    |_|  |_| |__|  |__|  |_| \__\ |__|  \__/        
                                                                              
                      - O R C A' S   B I G   F R I E N D -                    
                                      &                                       
                       - I N T E G R A L  F E E D E R -                       
                                                                              
 v1 FN, 2020, v2 2021                                                         
------------------------------------------------------------------------------


Reading SHARK input file carbon_monoxide_B3LYP.SHARKINP.tmp ... ok
----------------------
SHARK INTEGRAL PACKAGE
----------------------

Number of atoms                             ...      2
Number of basis functions                   ...     92
Number of shells                            ...     28
Maximum angular momentum                    ...      3
Integral batch strategy                     ... SHARK/LIBINT Hybrid
RI-J (if used) integral strategy            ... SPLIT-RIJ (Revised 2003 algorithm where possible)
Printlevel                                  ...      1
Contraction scheme used                     ... SEGMENTED contraction
Coulomb Range Separation                    ... NOT USED
Exchange Range Separation                   ... NOT USED
Finite Nucleus Model                        ... NOT USED
Auxiliary Coulomb fitting basis             ... AVAILABLE
   # of basis functions in Aux-J            ...     98
   # of shells in Aux-J                     ...     30
   Maximum angular momentum in Aux-J        ...      4
Auxiliary J/K fitting basis                 ... NOT available
Auxiliary Correlation fitting basis         ... NOT available
Auxiliary 'external' fitting basis          ... NOT available
Integral threshold                          ...     1.000000e-12
Primitive cut-off                           ...     1.000000e-14
Primitive pair pre-selection threshold      ...     1.000000e-14

Calculating pre-screening integrals         ... done (  0.0 sec) Dimension = 28
Organizing shell pair data                  ... done (  0.0 sec)
Shell pair information
Total number of shell pairs                 ...       406
Shell pairs after pre-screening             ...       406
Total number of primitive shell pairs       ...      1948
Primitive shell pairs kept                  ...      1788
          la=0 lb=0:     55 shell pairs
          la=1 lb=0:     80 shell pairs
          la=1 lb=1:     36 shell pairs
          la=2 lb=0:     60 shell pairs
          la=2 lb=1:     48 shell pairs
          la=2 lb=2:     21 shell pairs
          la=3 lb=0:     40 shell pairs
          la=3 lb=1:     32 shell pairs
          la=3 lb=2:     24 shell pairs
          la=3 lb=3:     10 shell pairs

Calculating one electron integrals          ... done (  0.0 sec)
Calculating RI/J V-Matrix + Cholesky decomp.... done (  0.0 sec)
Calculating Nuclear repulsion               ... done (  0.0 sec) ENN=     22.610026100510 Eh

SHARK setup successfully completed in   0.1 seconds

Maximum memory used throughout the entire GTOINT-calculation: 17.2 MB


           ************************************************************
           *        Program running with 6 parallel MPI-processes     *
           *              working on a common directory               *
           ************************************************************
-------------------------------------------------------------------------------
                                 ORCA SCF
-------------------------------------------------------------------------------

------------
SCF SETTINGS
------------
Hamiltonian:
 Density Functional     Method          .... DFT(GTOs)
 Exchange Functional    Exchange        .... B88
   X-Alpha parameter    XAlpha          ....  0.666667
   Becke's b parameter  XBeta           ....  0.004200
 Correlation Functional Correlation     .... LYP
 LDA part of GGA corr.  LDAOpt          .... VWN-5
 Gradients option       PostSCFGGA      .... off
 Hybrid DFT is turned on
   Fraction HF Exchange ScalHFX         ....  0.200000
   Scaling of DF-GGA-X  ScalDFX         ....  0.720000
   Scaling of DF-GGA-C  ScalDFC         ....  0.810000
   Scaling of DF-LDA-C  ScalLDAC        ....  1.000000
   Perturbative correction              ....  0.000000
   Density functional embedding theory  .... OFF
   NL short-range parameter             ....  4.800000
 RI-approximation to the Coulomb term is turned on
   Number of AuxJ basis functions       .... 98
   RIJ-COSX (HFX calculated with COS-X)).... on


General Settings:
 Integral files         IntName         .... carbon_monoxide_B3LYP
 Hartree-Fock type      HFTyp           .... RHF
 Total Charge           Charge          ....    0
 Multiplicity           Mult            ....    1
 Number of Electrons    NEL             ....   14
 Basis Dimension        Dim             ....   92
 Nuclear Repulsion      ENuc            ....     22.6100261005 Eh

Convergence Acceleration:
 DIIS                   CNVDIIS         .... on
   Start iteration      DIISMaxIt       ....    12
   Startup error        DIISStart       ....  0.200000
   # of expansion vecs  DIISMaxEq       ....     5
   Bias factor          DIISBfac        ....   1.050
   Max. coefficient     DIISMaxC        ....  10.000
 Trust-Rad. Augm. Hess. CNVTRAH         .... auto
   Auto Start mean grad. ratio tolernc. ....  1.125000
   Auto Start start iteration           ....    20
   Auto Start num. interpolation iter.  ....    10
   Max. Number of Micro iterations      ....    16
   Max. Number of Macro iterations      .... Maxiter - #DIIS iter
   Number of Davidson start vectors     ....     2
   Converg. threshold I  (grad. norm)   ....   2.000e-06
   Converg. threshold II (energy diff.) ....   1.000e-09
   Grad. Scal. Fac. for Micro threshold ....   0.100
   Minimum threshold for Micro iter.    ....   0.010
   NR start threshold (gradient norm)   ....   0.001
   Initial trust radius                 ....   0.400
   Minimum AH scaling param. (alpha)    ....   1.000
   Maximum AH scaling param. (alpha)    .... 1000.000
   Orbital update algorithm             .... Taylor
   White noise on init. David. guess    .... on
   Maximum white noise                  ....   0.010
   Quad. conv. algorithm                .... NR
 SOSCF                  CNVSOSCF        .... on
   Start iteration      SOSCFMaxIt      ....   150
   Startup grad/error   SOSCFStart      ....  0.003300
 Level Shifting         CNVShift        .... on
   Level shift para.    LevelShift      ....    0.2500
   Turn off err/grad.   ShiftErr        ....    0.0010
 Zerner damping         CNVZerner       .... off
 Static damping         CNVDamp         .... on
   Fraction old density DampFac         ....    0.7000
   Max. Damping (<1)    DampMax         ....    0.9800
   Min. Damping (>=0)   DampMin         ....    0.0000
   Turn off err/grad.   DampErr         ....    0.1000
 Fernandez-Rico         CNVRico         .... off

SCF Procedure:
 Maximum # iterations   MaxIter         ....   125
 SCF integral mode      SCFMode         .... Direct
   Integral package                     .... SHARK and LIBINT hybrid scheme
 Reset frequency        DirectResetFreq ....    20
 Integral Threshold     Thresh          ....  1.000e-12 Eh
 Primitive CutOff       TCut            ....  1.000e-14 Eh

Convergence Tolerance:
 Convergence Check Mode ConvCheckMode   .... Total+1el-Energy
 Convergence forced     ConvForced      .... 0
 Energy Change          TolE            ....  1.000e-09 Eh
 1-El. energy change                    ....  1.000e-06 Eh
 Orbital Gradient       TolG            ....  2.000e-06
 Orbital Rotation angle TolX            ....  2.000e-06
 DIIS Error             TolErr          ....  1.000e-08


Diagonalization of the overlap matrix:
Smallest eigenvalue                        ... 4.711e-04
Time for diagonalization                   ...    0.001 sec
Threshold for overlap eigenvalues          ... 1.000e-08
Number of eigenvalues below threshold      ... 0
Time for construction of square roots      ...    0.002 sec
Total time needed                          ...    0.003 sec

Time for model grid setup =    0.043 sec

------------------------------
INITIAL GUESS: MODEL POTENTIAL
------------------------------
Loading Hartree-Fock densities                     ... done
Calculating cut-offs                               ... done
Initializing the effective Hamiltonian             ... done
Setting up the integral package (SHARK)            ... done
Starting the Coulomb interaction                   ... done (   0.0 sec)
Reading the grid                                   ... done
Mapping shells                                     ... done
Starting the XC term evaluation                    ... done (   0.0 sec)
  promolecular density results
     # of electrons  =     14.000026639
     EX              =    -13.253962640
     EC              =     -0.483647934
     EX+EC           =    -13.737610574
Transforming the Hamiltonian                       ... done (   0.0 sec)
Diagonalizing the Hamiltonian                      ... done (   0.0 sec)
Back transforming the eigenvectors                 ... done (   0.0 sec)
Now organizing SCF variables                       ... done
                      ------------------
                      INITIAL GUESS DONE (   0.1 sec)
                      ------------------
-------------------
DFT GRID GENERATION
-------------------

General Integration Accuracy     IntAcc      ... 4.388
Radial Grid Type                 RadialGrid  ... OptM3 with GC (2021)
Angular Grid (max. ang.)         AngularGrid ... 4 (Lebedev-302)
Angular grid pruning method      GridPruning ... 4 (adaptive)
Weight generation scheme         WeightScheme... Becke
Basis function cutoff            BFCut       ... 1.0000e-12
Integration weight cutoff        WCut        ... 1.0000e-14
Angular grids for H and He will be reduced by one unit
Partially contracted basis set               ... off
Rotationally invariant grid construction     ... off

Total number of grid points                  ...    12895
Total number of batches                      ...      202
Average number of points per batch           ...       63
Average number of grid points per atom       ...     6448
Time for grid setup =    0.089 sec

--------------------
COSX GRID GENERATION
--------------------

GRIDX 1
-------
General Integration Accuracy     IntAcc      ... 3.816
Radial Grid Type                 RadialGrid  ... OptM3 with GC (2021)
Angular Grid (max. ang.)         AngularGrid ... 1 (Lebedev-50)
Angular grid pruning method      GridPruning ... 4 (adaptive)
Weight generation scheme         WeightScheme... Becke
Basis function cutoff            BFCut       ... 1.0000e-12
Integration weight cutoff        WCut        ... 1.0000e-14
Angular grids for H and He will be reduced by one unit
Partially contracted basis set               ... on
Rotationally invariant grid construction     ... off

Total number of grid points                  ...     1628
Total number of batches                      ...       27
Average number of points per batch           ...       60
Average number of grid points per atom       ...      814
UseSFitting                                  ... on

GRIDX 2
-------
General Integration Accuracy     IntAcc      ... 4.020
Radial Grid Type                 RadialGrid  ... OptM3 with GC (2021)
Angular Grid (max. ang.)         AngularGrid ... 2 (Lebedev-110)
Angular grid pruning method      GridPruning ... 4 (adaptive)
Weight generation scheme         WeightScheme... Becke
Basis function cutoff            BFCut       ... 1.0000e-12
Integration weight cutoff        WCut        ... 1.0000e-14
Angular grids for H and He will be reduced by one unit
Partially contracted basis set               ... on
Rotationally invariant grid construction     ... off

Total number of grid points                  ...     4600
Total number of batches                      ...       73
Average number of points per batch           ...       63
Average number of grid points per atom       ...     2300
UseSFitting                                  ... on

GRIDX 3
-------
General Integration Accuracy     IntAcc      ... 4.338
Radial Grid Type                 RadialGrid  ... OptM3 with GC (2021)
Angular Grid (max. ang.)         AngularGrid ... 3 (Lebedev-194)
Angular grid pruning method      GridPruning ... 4 (adaptive)
Weight generation scheme         WeightScheme... Becke
Basis function cutoff            BFCut       ... 1.0000e-12
Integration weight cutoff        WCut        ... 1.0000e-14
Angular grids for H and He will be reduced by one unit
Partially contracted basis set               ... on
Rotationally invariant grid construction     ... off

Total number of grid points                  ...     9932
Total number of batches                      ...      156
Average number of points per batch           ...       63
Average number of grid points per atom       ...     4966
UseSFitting                                  ... on

Time for X-Grid setup             =    0.110 sec

 re-compute Schwartz prescreening matrix in partically contracted basis (1) ...done (   0.088 sec)
--------------
SCF ITERATIONS
--------------
ITER       Energy         Delta-E        Max-DP      RMS-DP      [F,P]     Damp
               ***  Starting incremental Fock matrix formation  ***
  0   -113.2655543871   0.000000000000 0.02494844  0.00104886  0.2252435 0.7000
  1   -113.2866665118  -0.021112124667 0.01259440  0.00050657  0.0799929 0.7000
                               ***Turning on DIIS***
  2   -113.2918082079  -0.005141696133 0.02677073  0.00063132  0.0252990 0.0000
  3   -113.3058662961  -0.014058088220 0.00930595  0.00034322  0.0252747 0.0000
  4   -113.3061057511  -0.000239454919 0.00560847  0.00016051  0.0230568 0.0000
  5   -113.3066068146  -0.000501063570 0.00099741  0.00003765  0.0056395 0.0000
                      *** Initiating the SOSCF procedure ***
                           *** Shutting down DIIS ***
                      *** Re-Reading the Fockian *** 
                      *** Removing any level shift *** 
ITER      Energy       Delta-E        Grad      Rot      Max-DP    RMS-DP
  6   -113.30663841  -0.0000315922  0.000241  0.000241  0.000285  0.000010
               *** Restarting incremental Fock matrix formation ***
  7   -113.30664221  -0.0000038022  0.000197  0.000441  0.000259  0.000010
  8   -113.30664157   0.0000006342  0.000420  0.000278  0.000167  0.000007
  9   -113.30664238  -0.0000008073  0.000005  0.000005  0.000009  0.000000
 10   -113.30664238  -0.0000000004  0.000002  0.000001  0.000002  0.000000
                  ***Gradient check signals convergence***
              ***Rediagonalizing the Fockian in SOSCF/NRSCF***

               *****************************************************
               *                     SUCCESS                       *
               *           SCF CONVERGED AFTER  11 CYCLES          *
               *****************************************************

Old exchange energy                            =     -2.660484352 Eh
New exchange energy                            =     -2.660487571 Eh
Exchange energy change after final integration =     -0.000003219 Eh
Total energy after final integration           =   -113.306645602 Eh
Final COS-X integration done in                =     0.138 sec

----------------
TOTAL SCF ENERGY
----------------

Total Energy       :         -113.30664560 Eh           -3083.23058 eV

Components:
Nuclear Repulsion  :           22.61002610 Eh             615.25009 eV
Electronic Energy  :         -135.91667170 Eh           -3698.48066 eV
One Electron Energy:         -198.52971916 Eh           -5402.26830 eV
Two Electron Energy:           62.61304745 Eh            1703.78764 eV
Max COSX asymmetry :            0.00000015 Eh               0.00000 eV

Virial components:
Potential Energy   :         -226.01934799 Eh           -6150.29913 eV
Kinetic Energy     :          112.71270238 Eh            3067.06856 eV
Virial Ratio       :            2.00526953


DFT components:
N(Alpha)           :        7.000004943272 electrons
N(Beta)            :        7.000004943272 electrons
N(Total)           :       14.000009886544 electrons
E(X)               :      -10.607372642994 Eh       
E(C)               :       -0.573590169181 Eh       
E(XC)              :      -11.180962812175 Eh       
DFET-embed. en.    :        0.000000000000 Eh       

---------------
SCF CONVERGENCE
---------------

  Last Energy change         ...   -4.7947e-11  Tolerance :   1.0000e-09
  Last MAX-Density change    ...    1.5543e-15  Tolerance :   1.0000e-08
  Last RMS-Density change    ...    1.9212e-17  Tolerance :   1.0000e-09
  Last Orbital Gradient      ...    3.4902e-07  Tolerance :   2.0000e-06
  Last Orbital Rotation      ...    4.4111e-07  Tolerance :   2.0000e-06

             **** THE GBW FILE WAS UPDATED (carbon_monoxide_B3LYP.gbw) ****
             **** DENSITY carbon_monoxide_B3LYP.scfp WAS UPDATED ****
             **** ENERGY FILE WAS UPDATED (carbon_monoxide_B3LYP.en.tmp) ****
             **** THE GBW FILE WAS UPDATED (carbon_monoxide_B3LYP.gbw) ****
             **** DENSITY carbon_monoxide_B3LYP.scfp WAS UPDATED ****
----------------
ORBITAL ENERGIES
----------------

  NO   OCC          E(Eh)            E(eV) 
   0   2.0000     -19.239466      -523.5325 
   1   2.0000     -10.293204      -280.0923 
   2   2.0000      -1.173167       -31.9235 
   3   2.0000      -0.581590       -15.8259 
   4   2.0000      -0.483378       -13.1534 
   5   2.0000      -0.483378       -13.1534 
   6   2.0000      -0.383126       -10.4254 
   7   0.0000      -0.036604        -0.9961 
   8   0.0000      -0.036604        -0.9961 
   9   0.0000       0.024682         0.6716 
  10   0.0000       0.047545         1.2938 
  11   0.0000       0.056318         1.5325 
  12   0.0000       0.056318         1.5325 
  13   0.0000       0.126910         3.4534 
  14   0.0000       0.139210         3.7881 
  15   0.0000       0.139210         3.7881 
  16   0.0000       0.196365         5.3434 
  17   0.0000       0.209798         5.7089 
  18   0.0000       0.209798         5.7089 
  19   0.0000       0.300849         8.1865 
  20   0.0000       0.318512         8.6671 
  21   0.0000       0.318512         8.6671 
  22   0.0000       0.384567        10.4646 
  23   0.0000       0.384567        10.4646 
  24   0.0000       0.401631        10.9289 
  25   0.0000       0.537261        14.6196 
  26   0.0000       0.580629        15.7997 
  27   0.0000       0.580630        15.7998 
  28   0.0000       0.592086        16.1115 
  29   0.0000       0.669263        18.2116 
  30   0.0000       0.669263        18.2116 
  31   0.0000       0.821630        22.3577 
  32   0.0000       0.867548        23.6072 
  33   0.0000       0.867548        23.6072 
  34   0.0000       0.900682        24.5088 
  35   0.0000       0.900682        24.5088 
  36   0.0000       0.921430        25.0734 
  37   0.0000       0.921430        25.0734 
  38   0.0000       1.049212        28.5505 
  39   0.0000       1.049212        28.5505 
  40   0.0000       1.085893        29.5487 
  41   0.0000       1.117372        30.4052 
  42   0.0000       1.117373        30.4053 
  43   0.0000       1.184872        32.2420 
  44   0.0000       1.285719        34.9862 
  45   0.0000       1.286717        35.0134 
  46   0.0000       1.286717        35.0134 
  47   0.0000       1.896558        51.6080 
  48   0.0000       1.896579        51.6085 
  49   0.0000       1.901689        51.7476 
  50   0.0000       1.901689        51.7476 
  51   0.0000       2.020462        54.9796 
  52   0.0000       2.020462        54.9796 
  53   0.0000       2.059083        56.0305 
  54   0.0000       2.176290        59.2199 
  55   0.0000       2.286255        62.2122 
  56   0.0000       2.286255        62.2122 
  57   0.0000       2.332546        63.4718 
  58   0.0000       2.332547        63.4718 
  59   0.0000       2.382690        64.8363 
  60   0.0000       2.656520        72.2876 
  61   0.0000       2.656520        72.2876 
  62   0.0000       3.069817        83.5340 
  63   0.0000       3.069824        83.5341 
  64   0.0000       3.136752        85.3554 
  65   0.0000       3.136752        85.3554 
  66   0.0000       3.157290        85.9142 
  67   0.0000       3.302236        89.8584 
  68   0.0000       3.302236        89.8584 
  69   0.0000       3.435920        93.4961 
  70   0.0000       3.435924        93.4962 
  71   0.0000       3.569768        97.1383 
  72   0.0000       3.569768        97.1383 
  73   0.0000       3.645109        99.1885 
  74   0.0000       3.978416       108.2582 
  75   0.0000       4.791657       130.3876 
  76   0.0000       4.791657       130.3876 
  77   0.0000       4.850332       131.9843 
  78   0.0000       6.009306       163.5215 
  79   0.0000       6.009306       163.5215 
  80   0.0000       6.288580       171.1210 
  81   0.0000       6.288636       171.1225 
  82   0.0000       6.495990       176.7649 
  83   0.0000       6.496049       176.7665 
  84   0.0000       6.635818       180.5698 
  85   0.0000       6.635818       180.5698 
  86   0.0000       6.719040       182.8344 
  87   0.0000       6.895715       187.6420 
  88   0.0000       6.895715       187.6420 
  89   0.0000       7.067766       192.3237 
  90   0.0000      11.901653       323.8604 
  91   0.0000      14.621005       397.8578 

                    ********************************
                    * MULLIKEN POPULATION ANALYSIS *
                    ********************************

-----------------------
MULLIKEN ATOMIC CHARGES
-----------------------
   0 C :    0.090733
   1 O :   -0.090733
Sum of atomic charges:    0.0000000

--------------------------------
MULLIKEN REDUCED ORBITAL CHARGES
--------------------------------
  0 C s       :     3.830783  s :     3.830783
      pz      :     0.499851  p :     1.964330
      px      :     0.964628
      py      :     0.499851
      dz2     :     0.006867  d :     0.096821
      dxz     :     0.034677
      dyz     :     0.000000
      dx2y2   :     0.020600
      dxy     :     0.034677
      f0      :     0.002231  f :     0.017332
      f+1     :     0.002037
      f-1     :     0.000372
      f+2     :     0.003719
      f-2     :     0.000000
      f+3     :     0.003394
      f-3     :     0.005579
  1 O s       :     3.811499  s :     3.811499
      pz      :     1.442280  p :     4.229329
      px      :     1.344769
      py      :     1.442280
      dz2     :     0.003967  d :     0.047096
      dxz     :     0.015613
      dyz     :     0.000000
      dx2y2   :     0.011902
      dxy     :     0.015613
      f0      :     0.000610  f :     0.002809
      f+1     :    -0.000168
      f-1     :     0.000102
      f+2     :     0.001017
      f-2     :     0.000000
      f+3     :    -0.000279
      f-3     :     0.001526


                     *******************************
                     * LOEWDIN POPULATION ANALYSIS *
                     *******************************

----------------------
LOEWDIN ATOMIC CHARGES
----------------------
   0 C :   -0.183884
   1 O :    0.183884

-------------------------------
LOEWDIN REDUCED ORBITAL CHARGES
-------------------------------
  0 C s       :     3.242324  s :     3.242324
      pz      :     0.518578  p :     2.260710
      px      :     1.223554
      py      :     0.518578
      dz2     :     0.054303  d :     0.438508
      dxz     :     0.110648
      dyz     :     0.000000
      dx2y2   :     0.162910
      dxy     :     0.110648
      f0      :     0.027557  f :     0.242342
      f+1     :     0.035763
      f-1     :     0.004593
      f+2     :     0.045929
      f-2     :     0.000000
      f+3     :     0.059606
      f-3     :     0.068893
  1 O s       :     3.391283  s :     3.391283
      pz      :     1.252080  p :     4.156635
      px      :     1.652475
      py      :     1.252080
      dz2     :     0.035370  d :     0.202518
      dxz     :     0.030519
      dyz     :     0.000000
      dx2y2   :     0.106110
      dxy     :     0.030519
      f0      :     0.005508  f :     0.065679
      f+1     :     0.013613
      f-1     :     0.000918
      f+2     :     0.009181
      f-2     :     0.000000
      f+3     :     0.022689
      f-3     :     0.013771


                      *****************************
                      * MAYER POPULATION ANALYSIS *
                      *****************************

  NA   - Mulliken gross atomic population
  ZA   - Total nuclear charge
  QA   - Mulliken gross atomic charge
  VA   - Mayer's total valence
  BVA  - Mayer's bonded valence
  FA   - Mayer's free valence

  ATOM       NA         ZA         QA         VA         BVA        FA
  0 C      5.9093     6.0000     0.0907     2.4295     2.4295     0.0000
  1 O      8.0907     8.0000    -0.0907     2.4295     2.4295     0.0000

  Mayer bond orders larger than 0.100000
B(  0-C ,  1-O ) :   2.4295 

-------
TIMINGS
-------

Total SCF time: 0 days 0 hours 0 min 2 sec 

Total time                  ....       2.128 sec
Sum of individual times     ....       1.902 sec  ( 89.4%)

Fock matrix formation       ....       1.527 sec  ( 71.8%)
  Split-RI-J                ....       0.200 sec  ( 13.1% of F)
  Chain of spheres X        ....       1.001 sec  ( 65.6% of F)
  XC integration            ....       0.293 sec  ( 19.2% of F)
    Basis function eval.    ....       0.044 sec  ( 15.1% of XC)
    Density eval.           ....       0.035 sec  ( 12.0% of XC)
    XC-Functional eval.     ....       0.012 sec  (  4.2% of XC)
    XC-Potential eval.      ....       0.102 sec  ( 34.9% of XC)
Diagonalization             ....       0.027 sec  (  1.3%)
Density matrix formation    ....       0.001 sec  (  0.1%)
Population analysis         ....       0.004 sec  (  0.2%)
Initial guess               ....       0.027 sec  (  1.3%)
Orbital Transformation      ....       0.000 sec  (  0.0%)
Orbital Orthonormalization  ....       0.000 sec  (  0.0%)
DIIS solution               ....       0.063 sec  (  3.0%)
SOSCF solution              ....       0.008 sec  (  0.4%)
Grid generation             ....       0.242 sec  ( 11.4%)

Maximum memory used throughout the entire SCF-calculation: 59.3 MB

-------------------------   --------------------
FINAL SINGLE POINT ENERGY      -113.306645601715
-------------------------   --------------------


                            ***************************************
                            *     ORCA property calculations      *
                            ***************************************

                                    ---------------------
                                    Active property flags
                                    ---------------------
   (+) Dipole Moment


------------------------------------------------------------------------------
                       ORCA ELECTRIC PROPERTIES CALCULATION
------------------------------------------------------------------------------

Dipole Moment Calculation                       ... on
Quadrupole Moment Calculation                   ... off
Polarizability Calculation                      ... off
GBWName                                         ... carbon_monoxide_B3LYP.gbw
Electron density                                ... carbon_monoxide_B3LYP.scfp
The origin for moment calculation is the CENTER OF MASS  = (-51.463583, 22.991674  0.000000)

-------------
DIPOLE MOMENT
-------------
                                X             Y             Z
Electronic contribution:      0.03408       0.00000       0.00000
Nuclear contribution   :      0.00712       0.00000       0.00000
                        -----------------------------------------
Total Dipole Moment    :      0.04121       0.00000       0.00000
                        -----------------------------------------
Magnitude (a.u.)       :      0.04121
Magnitude (Debye)      :      0.10474



--------------------
Rotational spectrum 
--------------------
 
Rotational constants in cm-1:     0.000000     1.946953     1.946953 
Rotational constants in MHz :     0.000000 58368.172843 58368.172843 

 Dipole components along the rotational axes: 
x,y,z [a.u.] :     0.041208     0.000000     0.000000 
x,y,z [Debye]:     0.104741     0.000000     0.000000 

 

Timings for individual modules:

Sum of individual times         ...        2.497 sec (=   0.042 min)
GTO integral calculation        ...        0.240 sec (=   0.004 min)   9.6 %
SCF iterations                  ...        2.257 sec (=   0.038 min)  90.4 %
                             ****ORCA TERMINATED NORMALLY****
TOTAL RUN TIME: 0 days 0 hours 0 minutes 2 seconds 656 msec
