
                                 *****************
                                 * O   R   C   A *
                                 *****************

           --- An Ab Initio, DFT and Semiempirical electronic structure package ---

                  #######################################################
                  #                        -***-                        #
                  #          Department of theory and spectroscopy      #
                  #               Directorship: Frank Neese             #
                  #        Max Planck Institute fuer Kohlenforschung    #
                  #                Kaiser Wilhelm Platz 1               #
                  #                 D-45470 Muelheim/Ruhr               #
                  #                      Germany                        #
                  #                                                     #
                  #                  All rights reserved                #
                  #                        -***-                        #
                  #######################################################


                         Program Version 4.2.1 -  RELEASE  -


 With contributions from (in alphabetic order):
   Daniel Aravena         : Magnetic Suceptibility
   Michael Atanasov       : Ab Initio Ligand Field Theory (pilot matlab implementation)
   Alexander A. Auer      : GIAO ZORA, VPT2
   Ute Becker             : Parallelization
   Giovanni Bistoni       : ED, misc. LED, open-shell LED, HFLD
   Martin Brehm           : Molecular dynamics
   Dmytro Bykov           : SCF Hessian
   Vijay G. Chilkuri      : MRCI spin determinant printing, contributions to CSF-ICE
   Dipayan Datta          : RHF DLPNO-CCSD density
   Achintya Kumar Dutta   : EOM-CC, STEOM-CC
   Dmitry Ganyushin       : Spin-Orbit,Spin-Spin,Magnetic field MRCI
   Miquel Garcia          : C-PCM Hessian, Gaussian charge scheme
   Yang Guo               : DLPNO-NEVPT2, CIM, IAO-localization
   Andreas Hansen         : Spin unrestricted coupled pair/coupled cluster methods
   Benjamin Helmich-Paris : CASSCF linear response (MC-RPA)
   Lee Huntington         : MR-EOM, pCC
   Robert Izsak           : Overlap fitted RIJCOSX, COSX-SCS-MP3, EOM
   Christian Kollmar      : KDIIS, OOCD, Brueckner-CCSD(T), CCSD density
   Simone Kossmann        : Meta GGA functionals, TD-DFT gradient, OOMP2, MP2 Hessian
   Martin Krupicka        : AUTO-CI
   Lucas Lang             : DCDCAS
   Dagmar Lenk            : GEPOL surface, SMD
   Dimitrios Liakos       : Extrapolation schemes; Compound Job, initial MDCI parallelization
   Dimitrios Manganas     : Further ROCIS development; embedding schemes
   Dimitrios Pantazis     : SARC Basis sets
   Taras Petrenko         : DFT Hessian,TD-DFT gradient, ASA, ECA, R-Raman, ABS, FL, XAS/XES, NRVS
   Peter Pinski           : DLPNO-MP2, DLPNO-MP2 Gradient
   Christoph Reimann      : Effective Core Potentials
   Marius Retegan         : Local ZFS, SOC
   Christoph Riplinger    : Optimizer, TS searches, QM/MM, DLPNO-CCSD(T), (RO)-DLPNO pert. Triples
   Tobias Risthaus        : Range-separated hybrids, TD-DFT gradient, RPA, STAB
   Michael Roemelt        : Original ROCIS implementation
   Masaaki Saitow         : Open-shell DLPNO-CCSD energy and density
   Barbara Sandhoefer     : DKH picture change effects
   Avijit Sen             : IP-ROCIS
   Kantharuban Sivalingam : CASSCF convergence, NEVPT2, FIC-MRCI
   Bernardo de Souza      : ESD, SOC TD-DFT
   Georgi Stoychev        : AutoAux, RI-MP2 NMR
   Willem Van den Heuvel  : Paramagnetic NMR
   Boris Wezisla          : Elementary symmetry handling
   Frank Wennmohs         : Technical directorship


 We gratefully acknowledge several colleagues who have allowed us to
 interface, adapt or use parts of their codes:
   Stefan Grimme, W. Hujo, H. Kruse,             : VdW corrections, initial TS optimization,
                  C. Bannwarth                     DFT functionals, gCP, sTDA/sTD-DF
   Ed Valeev, F. Pavosevic, A. Kumar             : LibInt (2-el integral package), F12 methods
   Garnet Chan, S. Sharma, J. Yang, R. Olivares  : DMRG
   Ulf Ekstrom                                   : XCFun DFT Library
   Mihaly Kallay                                 : mrcc  (arbitrary order and MRCC methods)
   Andreas Klamt, Michael Diedenhofen            : otool_cosmo (COSMO solvation model)
   Jiri Pittner, Ondrej Demel                    : Mk-CCSD
   Frank Weinhold                                : gennbo (NPA and NBO analysis)
   Christopher J. Cramer and Donald G. Truhlar   : smd solvation model
   Lars Goerigk                                  : TD-DFT with DH, B97 family of functionals
   V. Asgeirsson, H. Jonsson                     : NEB implementation
   FAccTs GmbH                                   : IRC, NEB, NEB-TS, Multilevel, MM, QM/MM, CI optimization
   S Lehtola, MJT Oliveira, MAL Marques          : LibXC Library


 Your calculation uses the libint2 library for the computation of 2-el integrals
 For citations please refer to: http://libint.valeyev.net

 Your ORCA version has been built with support for libXC version: 4.2.3
 For citations please refer to: https://tddft.org/programs/libxc/

 This ORCA versions uses:
   CBLAS   interface :  Fast vector & matrix operations
   LAPACKE interface :  Fast linear algebra routines
   SCALAPACK package :  Parallel linear algebra routines




***************************************
The coordinates will be read from file: ammonia_B3LYP_cc-pVTZ_OPT.xyz
***************************************


----- Orbital basis set information -----
Your calculation utilizes the basis: aug-cc-pVTZ 
    H, B-Ne : Obtained from the ccRepo (grant-hill.group.shef.ac.uk/ccrepo) Feb. 2017
              R. A. Kendall, T. H. Dunning, Jr., R. J. Harrison, J. Chem. Phys. 96, 6796 (1992)
         He : Obtained from the ccRepo (grant-hill.group.shef.ac.uk/ccrepo) Feb. 2017
              D. E. Woon, T. H. Dunning, Jr., J. Chem. Phys. 100, 2975 (1994)
  Li-Be, Na : Obtained from the ccRepo (grant-hill.group.shef.ac.uk/ccrepo) Feb. 2017
              B. P. Prascher, D. E. Woon, K. A. Peterson, T. H. Dunning, Jr., A. K. Wilson, Theor. Chem. Acc. 128, 69 (2011)
         Mg : Obtained from the Peterson Research Group Website (tyr0.chem.wsu.edu/~kipeters) Feb. 2017
              B. P. Prascher, D. E. Woon, K. A. Peterson, T. H. Dunning, Jr., A. K. Wilson, Theor. Chem. Acc. 128, 69 (2011)
      Al-Ar : Obtained from the ccRepo (grant-hill.group.shef.ac.uk/ccrepo) Feb. 2017
              D. E. Woon, T. H. Dunning, Jr., J. Chem. Phys. 98, 1358 (1993)
      Sc-Zn : Obtained from the ccRepo (grant-hill.group.shef.ac.uk/ccrepo) Feb. 2017
              N. B. Balabanov, K. A. Peterson, J. Chem. Phys. 123, 064107 (2005)
              N. B. Balabanov, K. A. Peterson, J. Chem. Phys. 125, 074110 (2006)
      Ga-Kr : Obtained from the ccRepo (grant-hill.group.shef.ac.uk/ccrepo) Feb. 2017
              A. K. Wilson, D. E. Woon, K. A. Peterson, T. H. Dunning, Jr., J. Chem. Phys. 110, 7667 (1999)
     Ag, Au : Obtained from the Peterson Research Group Website (tyr0.chem.wsu.edu/~kipeters) Feb. 2017
              K. A. Peterson, C. Puzzarini, Theor. Chem. Acc. 114, 283 (2005)

================================================================================
                                        WARNINGS
                       Please study these warnings very carefully!
================================================================================


WARNING: The frozen-core approximation for MP2-gradient calculations is turned on by default.

WARNING: Geometry Optimization
  ===> : Switching off AutoStart
         For restart on a previous wavefunction, please use MOREAD

WARNING: Post HF methods need fully converged wavefunctions
  ===> : Setting SCFConvForced true
         You can overwrite this default with %scf ConvForced false 


INFO   : the flag for use of LIBINT has been found!

================================================================================
                                       INPUT FILE
================================================================================
NAME = ammonia_MP2_aug-cc-pVTZ_OPT.inp
|  1> # Ammonia geom opt with MP2/aug-cc-pVTZ
|  2> 
|  3> ! MP2 aug-cc-pVTZ Opt PAL4
|  4> 
|  5> *xyzfile 0 1 ammonia_B3LYP_cc-pVTZ_OPT.xyz
|  6> 
|  7>                          ****END OF INPUT****
================================================================================

                       *****************************
                       * Geometry Optimization Run *
                       *****************************

Geometry optimization settings:
Update method            Update   .... BFGS
Choice of coordinates    CoordSys .... Z-matrix Internals
Initial Hessian          InHess   .... Almoef's Model

Convergence Tolerances:
Energy Change            TolE     ....  5.0000e-06 Eh
Max. Gradient            TolMAXG  ....  3.0000e-04 Eh/bohr
RMS Gradient             TolRMSG  ....  1.0000e-04 Eh/bohr
Max. Displacement        TolMAXD  ....  4.0000e-03 bohr
RMS Displacement         TolRMSD  ....  2.0000e-03 bohr
Strict Convergence                ....  False
------------------------------------------------------------------------------
                        ORCA OPTIMIZATION COORDINATE SETUP
------------------------------------------------------------------------------

The optimization will be done in new redundant internal coordinates
Making redundant internal coordinates   ...  (new redundants) done
Evaluating the initial hessian          ...  (Almloef) done
Evaluating the coordinates              ...  done
Calculating the B-matrix                .... done
Calculating the G-matrix                .... done
Diagonalizing the G-matrix              .... done
The first mode is                       ....    1
The number of degrees of freedom        ....    6

    -----------------------------------------------------------------
                    Redundant Internal Coordinates


    -----------------------------------------------------------------
         Definition                    Initial Value    Approx d2E/dq
    -----------------------------------------------------------------
      1. B(H   1,N   0)                  1.0141         0.426209   
      2. B(H   2,N   0)                  1.0139         0.426532   
      3. B(H   3,N   0)                  1.0141         0.426238   
      4. A(H   1,N   0,H   3)          106.5131         0.301798   
      5. A(H   2,N   0,H   3)          106.5063         0.301834   
      6. A(H   1,N   0,H   2)          106.4689         0.301831   
      7. I(H   1,H   3,H   2,N   0)    -61.6752         0.003719   
    -----------------------------------------------------------------

Number of atoms                         .... 4
Number of degrees of freedom            .... 7

         *************************************************************
         *                GEOMETRY OPTIMIZATION CYCLE   1            *
         *************************************************************
---------------------------------
CARTESIAN COORDINATES (ANGSTROEM)
---------------------------------
  N     -0.010960   -0.015604    0.027095
  H     -0.325201   -0.459510   -0.828847
  H     -0.325075    0.947440   -0.016477
  H      1.001905    0.009453   -0.016241

----------------------------
CARTESIAN COORDINATES (A.U.)
----------------------------
  NO LB      ZA    FRAG     MASS         X           Y           Z
   0 N     7.0000    0    14.007   -0.020711   -0.029486    0.051203
   1 H     1.0000    0     1.008   -0.614541   -0.868348   -1.566294
   2 H     1.0000    0     1.008   -0.614302    1.790403   -0.031137
   3 H     1.0000    0     1.008    1.893326    0.017864   -0.030692

--------------------------------
INTERNAL COORDINATES (ANGSTROEM)
--------------------------------
 N      0   0   0     0.000000000000     0.00000000     0.00000000
 H      1   0   0     1.014119443661     0.00000000     0.00000000
 H      1   2   0     1.013913271830   106.46893357     0.00000000
 H      1   2   3     1.014101225641   106.51313047   246.63021060

---------------------------
INTERNAL COORDINATES (A.U.)
---------------------------
 N      0   0   0     0.000000000000     0.00000000     0.00000000
 H      1   0   0     1.916408015603     0.00000000     0.00000000
 H      1   2   0     1.916018407306   106.46893357     0.00000000
 H      1   2   3     1.916373588535   106.51313047   246.63021060

---------------------
BASIS SET INFORMATION
---------------------
There are 2 groups of distinct atoms

 Group   1 Type N   : 19s6p3d2f contracted to 5s4p3d2f pattern {88111/3111/111/11}
 Group   2 Type H   : 6s3p2d contracted to 4s3p2d pattern {3111/111/11}

Atom   0N    basis set group =>   1
Atom   1H    basis set group =>   2
Atom   2H    basis set group =>   2
Atom   3H    basis set group =>   2


           ************************************************************
           *        Program running with 4 parallel MPI-processes     *
           *              working on a common directory               *
           ************************************************************
------------------------------------------------------------------------------
                           ORCA GTO INTEGRAL CALCULATION
------------------------------------------------------------------------------

                         BASIS SET STATISTICS AND STARTUP INFO

 # of primitive gaussian shells          ...   63
 # of primitive gaussian functions       ...  141
 # of contracted shells                  ...   41
 # of contracted basis functions         ...  115
 Highest angular momentum                ...    3
 Maximum contraction depth               ...    8
 Integral package used                   ... LIBINT
 Integral threshhold            Thresh   ...  2.500e-11
 Primitive cut-off              TCut     ...  2.500e-12


------------------------------ INTEGRAL EVALUATION ----------------------------


 * One electron integrals 
 Pre-screening matrix                    ... done
 Shell pair data                         ... done (   0.000 sec)



           ************************************************************
           *        Program running with 4 parallel MPI-processes     *
           *              working on a common directory               *
           ************************************************************
-------------------------------------------------------------------------------
                                 ORCA SCF
-------------------------------------------------------------------------------

------------
SCF SETTINGS
------------
Hamiltonian:
 Ab initio Hamiltonian  Method          .... Hartree-Fock(GTOs)


General Settings:
 Integral files         IntName         .... ammonia_MP2_aug-cc-pVTZ_OPT
 Hartree-Fock type      HFTyp           .... RHF
 Total Charge           Charge          ....    0
 Multiplicity           Mult            ....    1
 Number of Electrons    NEL             ....   10
 Basis Dimension        Dim             ....  115
 Nuclear Repulsion      ENuc            ....     11.9357674471 Eh

Convergence Acceleration:
 DIIS                   CNVDIIS         .... on
   Start iteration      DIISMaxIt       ....    12
   Startup error        DIISStart       ....  0.200000
   # of expansion vecs  DIISMaxEq       ....     5
   Bias factor          DIISBfac        ....   1.050
   Max. coefficient     DIISMaxC        ....  10.000
 Newton-Raphson         CNVNR           .... off
 SOSCF                  CNVSOSCF        .... on
   Start iteration      SOSCFMaxIt      ....   150
   Startup grad/error   SOSCFStart      ....  0.003300
 Level Shifting         CNVShift        .... on
   Level shift para.    LevelShift      ....    0.2500
   Turn off err/grad.   ShiftErr        ....    0.0010
 Zerner damping         CNVZerner       .... off
 Static damping         CNVDamp         .... on
   Fraction old density DampFac         ....    0.7000
   Max. Damping (<1)    DampMax         ....    0.9800
   Min. Damping (>=0)   DampMin         ....    0.0000
   Turn off err/grad.   DampErr         ....    0.1000
 Fernandez-Rico         CNVRico         .... off

SCF Procedure:
 Maximum # iterations   MaxIter         ....   125
 SCF integral mode      SCFMode         .... Direct
   Integral package                     .... LIBINT
 Reset frequency        DirectResetFreq ....    20
 Integral Threshold     Thresh          ....  2.500e-11 Eh
 Primitive CutOff       TCut            ....  2.500e-12 Eh

Convergence Tolerance:
 Convergence Check Mode ConvCheckMode   .... Total+1el-Energy
 Convergence forced     ConvForced      .... 1
 Energy Change          TolE            ....  1.000e-08 Eh
 1-El. energy change                    ....  1.000e-05 Eh
 Orbital Gradient       TolG            ....  1.000e-05
 Orbital Rotation angle TolX            ....  1.000e-05
 DIIS Error             TolErr          ....  5.000e-07


Diagonalization of the overlap matrix:
Smallest eigenvalue                        ... 2.710e-04
Time for diagonalization                   ...    0.002 sec
Threshold for overlap eigenvalues          ... 1.000e-08
Number of eigenvalues below threshold      ... 0
Time for construction of square roots      ...    0.001 sec
Total time needed                          ...    0.003 sec

-------------------
DFT GRID GENERATION
-------------------

General Integration Accuracy     IntAcc      ...  4.340
Radial Grid Type                 RadialGrid  ... Gauss-Chebyshev
Angular Grid (max. acc.)         AngularGrid ... Lebedev-110
Angular grid pruning method      GridPruning ... 3 (G Style)
Weight generation scheme         WeightScheme... Becke
Basis function cutoff            BFCut       ...    1.0000e-11
Integration weight cutoff        WCut        ...    1.0000e-14
Grids for H and He will be reduced by one unit

# of grid points (after initial pruning)     ...   4084 (   0.0 sec)
# of grid points (after weights+screening)   ...   4024 (   0.0 sec)
nearest neighbour list constructed           ...    0.0 sec
Grid point re-assignment to atoms done       ...    0.0 sec
Grid point division into batches done        ...    0.0 sec
Reduced shell lists constructed in    0.0 sec

Total number of grid points                  ...     4024
Total number of batches                      ...       65
Average number of points per batch           ...       61
Average number of grid points per atom       ...     1006
Average number of shells per batch           ...    37.50 (91.46%)
Average number of basis functions per batch  ...   104.94 (91.26%)
Average number of large shells per batch     ...    35.94 (95.85%)
Average number of large basis fcns per batch ...   100.83 (96.08%)
Maximum spatial batch extension              ...  16.86, 17.10, 18.30 au
Average spatial batch extension              ...   1.27,  1.33,  1.43 au

Time for grid setup =    0.009 sec

------------------------------
INITIAL GUESS: MODEL POTENTIAL
------------------------------
Loading Hartree-Fock densities                     ... done
Calculating cut-offs                               ... done
Setting up the integral package                    ... done
Initializing the effective Hamiltonian             ... done
Starting the Coulomb interaction                   ... done (   0.0 sec)
Reading the grid                                   ... done
Mapping shells                                     ... done
Starting the XC term evaluation                    ... done (   0.0 sec)
Transforming the Hamiltonian                       ... done (   0.0 sec)
Diagonalizing the Hamiltonian                      ... done (   0.0 sec)
Back transforming the eigenvectors                 ... done (   0.0 sec)
Now organizing SCF variables                       ... done
                      ------------------
                      INITIAL GUESS DONE (   0.1 sec)
                      ------------------
--------------
SCF ITERATIONS
--------------
ITER       Energy         Delta-E        Max-DP      RMS-DP      [F,P]     Damp
               ***  Starting incremental Fock matrix formation  ***
  0    -56.0792790246   0.000000000000 0.03079534  0.00092558  0.3964827 0.7000
  1    -56.1345865670  -0.055307542328 0.01991334  0.00065462  0.2377811 0.7000
                               ***Turning on DIIS***
  2    -56.1644300597  -0.029843492731 0.01370525  0.00037810  0.1271939 0.7000
  3    -56.3511275687  -0.186697508965 0.03571311  0.00064900  0.0787596 0.0000
  4    -56.1793376055   0.171789963170 0.00631420  0.00012996  0.0151389 0.0000
                      *** Initiating the SOSCF procedure ***
                           *** Shutting down DIIS ***
                      *** Re-Reading the Fockian *** 
                      *** Removing any level shift *** 
ITER      Energy       Delta-E        Grad      Rot      Max-DP    RMS-DP
  5    -56.21548600  -0.0361483994  0.001236  0.001236  0.001650  0.000042
               *** Restarting incremental Fock matrix formation ***
  6    -56.22016236  -0.0046763537  0.000543  0.000879  0.000939  0.000024
  7    -56.22016905  -0.0000066910  0.000228  0.000739  0.001130  0.000022
  8    -56.22017052  -0.0000014750  0.000076  0.000039  0.000111  0.000003
  9    -56.22017061  -0.0000000868  0.000015  0.000024  0.000014  0.000001
 10    -56.22017062  -0.0000000047  0.000003  0.000008  0.000010  0.000000
                 **** Energy Check signals convergence ****
              ***Rediagonalizing the Fockian in SOSCF/NRSCF***

               *****************************************************
               *                     SUCCESS                       *
               *           SCF CONVERGED AFTER  11 CYCLES          *
               *****************************************************


----------------
TOTAL SCF ENERGY
----------------

Total Energy       :          -56.22017062 Eh           -1529.82862 eV

Components:
Nuclear Repulsion  :           11.93576745 Eh             324.78874 eV
Electronic Energy  :          -68.15593806 Eh           -1854.61736 eV
One Electron Energy:          -99.57230517 Eh           -2709.50017 eV
Two Electron Energy:           31.41636711 Eh             854.88281 eV

Virial components:
Potential Energy   :         -112.34071179 Eh           -3056.94618 eV
Kinetic Energy     :           56.12054117 Eh            1527.11756 eV
Virial Ratio       :            2.00177528


---------------
SCF CONVERGENCE
---------------

  Last Energy change         ...   -2.1683e-10  Tolerance :   1.0000e-08
  Last MAX-Density change    ...    4.4250e-06  Tolerance :   1.0000e-07
  Last RMS-Density change    ...    8.4581e-08  Tolerance :   5.0000e-09
  Last Orbital Gradient      ...    1.0485e-06  Tolerance :   1.0000e-05
  Last Orbital Rotation      ...    3.0907e-06  Tolerance :   1.0000e-05

             **** THE GBW FILE WAS UPDATED (ammonia_MP2_aug-cc-pVTZ_OPT.gbw) ****
             **** DENSITY FILE WAS UPDATED (ammonia_MP2_aug-cc-pVTZ_OPT.scfp) ****
             **** ENERGY FILE WAS UPDATED (ammonia_MP2_aug-cc-pVTZ_OPT.en.tmp) ****
             **** THE GBW FILE WAS UPDATED (ammonia_MP2_aug-cc-pVTZ_OPT.gbw) ****
             **** DENSITY FILE WAS UPDATED (ammonia_MP2_aug-cc-pVTZ_OPT.scfp) ****
----------------
ORBITAL ENERGIES
----------------

  NO   OCC          E(Eh)            E(eV) 
   0   2.0000     -15.542572      -422.9349 
   1   2.0000      -1.141917       -31.0731 
   2   2.0000      -0.627668       -17.0797 
   3   2.0000      -0.627567       -17.0770 
   4   2.0000      -0.430063       -11.7026 
   5   0.0000       0.029495         0.8026 
   6   0.0000       0.048693         1.3250 
   7   0.0000       0.048699         1.3252 
   8   0.0000       0.117870         3.2074 
   9   0.0000       0.152383         4.1465 
  10   0.0000       0.162373         4.4184 
  11   0.0000       0.162379         4.4185 
  12   0.0000       0.221328         6.0226 
  13   0.0000       0.221338         6.0229 
  14   0.0000       0.235161         6.3990 
  15   0.0000       0.235183         6.3997 
  16   0.0000       0.254394         6.9224 
  17   0.0000       0.355999         9.6872 
  18   0.0000       0.357801         9.7363 
  19   0.0000       0.370626        10.0852 
  20   0.0000       0.370634        10.0855 
  21   0.0000       0.427897        11.6437 
  22   0.0000       0.460670        12.5355 
  23   0.0000       0.460691        12.5360 
  24   0.0000       0.486676        13.2431 
  25   0.0000       0.486706        13.2439 
  26   0.0000       0.564166        15.3517 
  27   0.0000       0.601673        16.3724 
  28   0.0000       0.601717        16.3735 
  29   0.0000       0.749011        20.3816 
  30   0.0000       0.785352        21.3705 
  31   0.0000       0.785395        21.3717 
  32   0.0000       0.810825        22.0637 
  33   0.0000       0.881845        23.9962 
  34   0.0000       0.902594        24.5608 
  35   0.0000       0.914708        24.8905 
  36   0.0000       0.914746        24.8915 
  37   0.0000       0.979323        26.6487 
  38   0.0000       0.979358        26.6497 
  39   0.0000       1.034406        28.1476 
  40   0.0000       1.035659        28.1817 
  41   0.0000       1.035688        28.1825 
  42   0.0000       1.081123        29.4188 
  43   0.0000       1.103490        30.0275 
  44   0.0000       1.103497        30.0277 
  45   0.0000       1.142114        31.0785 
  46   0.0000       1.142148        31.0794 
  47   0.0000       1.185272        32.2529 
  48   0.0000       1.219221        33.1767 
  49   0.0000       1.219284        33.1784 
  50   0.0000       1.323413        36.0119 
  51   0.0000       1.361451        37.0470 
  52   0.0000       1.361580        37.0505 
  53   0.0000       1.616520        43.9877 
  54   0.0000       1.758473        47.8505 
  55   0.0000       1.758600        47.8539 
  56   0.0000       1.762593        47.9626 
  57   0.0000       1.863569        50.7103 
  58   0.0000       1.863626        50.7118 
  59   0.0000       1.864047        50.7233 
  60   0.0000       2.002334        54.4863 
  61   0.0000       2.039361        55.4938 
  62   0.0000       2.039483        55.4971 
  63   0.0000       2.048378        55.7392 
  64   0.0000       2.048460        55.7414 
  65   0.0000       2.274177        61.8835 
  66   0.0000       2.340616        63.6914 
  67   0.0000       2.373435        64.5845 
  68   0.0000       2.373548        64.5875 
  69   0.0000       2.436305        66.2952 
  70   0.0000       2.436371        66.2970 
  71   0.0000       2.470349        67.2216 
  72   0.0000       3.382852        92.0521 
  73   0.0000       3.557618        96.8077 
  74   0.0000       3.557754        96.8114 
  75   0.0000       3.969422       108.0135 
  76   0.0000       3.969640       108.0194 
  77   0.0000       4.043500       110.0292 
  78   0.0000       4.137238       112.5800 
  79   0.0000       4.137343       112.5828 
  80   0.0000       4.210871       114.5836 
  81   0.0000       4.220869       114.8557 
  82   0.0000       4.258967       115.8924 
  83   0.0000       4.259113       115.8964 
  84   0.0000       4.317889       117.4957 
  85   0.0000       4.357255       118.5669 
  86   0.0000       4.357387       118.5705 
  87   0.0000       4.472498       121.7029 
  88   0.0000       4.546872       123.7267 
  89   0.0000       4.547045       123.7314 
  90   0.0000       4.687878       127.5637 
  91   0.0000       4.740046       128.9832 
  92   0.0000       4.740184       128.9870 
  93   0.0000       4.938782       134.3911 
  94   0.0000       4.939070       134.3989 
  95   0.0000       4.981821       135.5622 
  96   0.0000       5.059822       137.6848 
  97   0.0000       5.059888       137.6865 
  98   0.0000       5.067967       137.9064 
  99   0.0000       5.252909       142.9389 
 100   0.0000       5.676375       154.4620 
 101   0.0000       5.676671       154.4701 
 102   0.0000       5.722383       155.7140 
 103   0.0000       5.891404       160.3133 
 104   0.0000       5.892020       160.3300 
 105   0.0000       6.047539       164.5619 
 106   0.0000       6.324501       172.0984 
 107   0.0000       6.325062       172.1137 
 108   0.0000       6.410981       174.4517 
 109   0.0000       6.618346       180.0944 
 110   0.0000       6.930971       188.6013 
 111   0.0000       6.931171       188.6068 
 112   0.0000       7.682481       209.0509 
 113   0.0000       7.683131       209.0686 
 114   0.0000      17.179068       467.4662 

                    ********************************
                    * MULLIKEN POPULATION ANALYSIS *
                    ********************************

-----------------------
MULLIKEN ATOMIC CHARGES
-----------------------
   0 N :   -0.597444
   1 H :    0.199172
   2 H :    0.199093
   3 H :    0.199180
Sum of atomic charges:    0.0000000

--------------------------------
MULLIKEN REDUCED ORBITAL CHARGES
--------------------------------
  0 N s       :     3.731920  s :     3.731920
      pz      :     1.428237  p :     3.822764
      px      :     1.171570
      py      :     1.222957
      dz2     :     0.013498  d :     0.040360
      dxz     :     0.003231
      dyz     :     0.005227
      dx2y2   :     0.016071
      dxy     :     0.002333
      f0      :     0.000076  f :     0.002400
      f+1     :     0.000588
      f-1     :     0.000700
      f+2     :     0.000035
      f-2     :     0.000162
      f+3     :     0.000638
      f-3     :     0.000201
  1 H s       :     0.708649  s :     0.708649
      pz      :     0.026492  p :     0.079190
      px      :     0.024359
      py      :     0.028339
      dz2     :     0.007459  d :     0.012988
      dxz     :     0.001333
      dyz     :     0.000828
      dx2y2   :     0.002128
      dxy     :     0.001240
  2 H s       :     0.708693  s :     0.708693
      pz      :     0.038441  p :     0.079221
      px      :     0.024367
      py      :     0.016413
      dz2     :     0.000061  d :     0.012992
      dxz     :     0.000355
      dyz     :     0.006798
      dx2y2   :     0.003562
      dxy     :     0.002217
  3 H s       :     0.708634  s :     0.708634
      pz      :     0.038424  p :     0.079193
      px      :     0.014376
      py      :     0.026393
      dz2     :     0.000060  d :     0.012994
      dxz     :     0.007104
      dyz     :     0.000051
      dx2y2   :     0.000802
      dxy     :     0.004976


                     *******************************
                     * LOEWDIN POPULATION ANALYSIS *
                     *******************************

----------------------
LOEWDIN ATOMIC CHARGES
----------------------
   0 N :    1.088437
   1 H :   -0.362702
   2 H :   -0.363038
   3 H :   -0.362697

-------------------------------
LOEWDIN REDUCED ORBITAL CHARGES
-------------------------------
  0 N s       :     2.711611  s :     2.711611
      pz      :     1.077481  p :     3.023077
      px      :     0.961142
      py      :     0.984454
      dz2     :     0.037749  d :     0.148378
      dxz     :     0.009888
      dyz     :     0.019646
      dx2y2   :     0.062938
      dxy     :     0.018156
      f0      :     0.001198  f :     0.028496
      f+1     :     0.006219
      f-1     :     0.006554
      f+2     :     0.000584
      f-2     :     0.002396
      f+3     :     0.008854
      f-3     :     0.002691
  1 H s       :     0.608831  s :     0.608831
      pz      :     0.205583  p :     0.457705
      px      :     0.119121
      py      :     0.133001
      dz2     :     0.099612  d :     0.296166
      dxz     :     0.063516
      dyz     :     0.067086
      dx2y2   :     0.043104
      dxy     :     0.022848
  2 H s       :     0.608886  s :     0.608886
      pz      :     0.141301  p :     0.457911
      px      :     0.119189
      py      :     0.197421
      dz2     :     0.022949  d :     0.296241
      dxz     :     0.006144
      dyz     :     0.101847
      dx2y2   :     0.085056
      dxy     :     0.080245
  3 H s       :     0.608866  s :     0.608866
      pz      :     0.141199  p :     0.457688
      px      :     0.199255
      py      :     0.117235
      dz2     :     0.022945  d :     0.296143
      dxz     :     0.106551
      dyz     :     0.001385
      dx2y2   :     0.059913
      dxy     :     0.105349


                      *****************************
                      * MAYER POPULATION ANALYSIS *
                      *****************************

  NA   - Mulliken gross atomic population
  ZA   - Total nuclear charge
  QA   - Mulliken gross atomic charge
  VA   - Mayer's total valence
  BVA  - Mayer's bonded valence
  FA   - Mayer's free valence

  ATOM       NA         ZA         QA         VA         BVA        FA
  0 N      7.5974     7.0000    -0.5974     2.8739     2.8739     0.0000
  1 H      0.8008     1.0000     0.1992     1.0142     1.0142     0.0000
  2 H      0.8009     1.0000     0.1991     1.0142     1.0142     0.0000
  3 H      0.8008     1.0000     0.1992     1.0142     1.0142     0.0000

  Mayer bond orders larger than 0.100000
B(  0-N ,  1-H ) :   0.9579 B(  0-N ,  2-H ) :   0.9580 B(  0-N ,  3-H ) :   0.9579 


-------
TIMINGS
-------

Total SCF time: 0 days 0 hours 0 min 3 sec 

Total time                  ....       3.828 sec
Sum of individual times     ....       3.658 sec  ( 95.6%)

Fock matrix formation       ....       3.532 sec  ( 92.3%)
Diagonalization             ....       0.010 sec  (  0.3%)
Density matrix formation    ....       0.001 sec  (  0.0%)
Population analysis         ....       0.002 sec  (  0.0%)
Initial guess               ....       0.092 sec  (  2.4%)
Orbital Transformation      ....       0.000 sec  (  0.0%)
Orbital Orthonormalization  ....       0.000 sec  (  0.0%)
DIIS solution               ....       0.006 sec  (  0.1%)
SOSCF solution              ....       0.007 sec  (  0.2%)


           ************************************************************
           *        Program running with 4 parallel MPI-processes     *
           *              working on a common directory               *
           ************************************************************

------------------------------------------------------------------------------
                                ORCA  MP2 
------------------------------------------------------------------------------

Freezing NCore=2 chemical core electrons
MP2 will be done in the AO integral direct mode
The Q1-step will be done using symmetric double matrices
Dimension of the basis                    ...  115
Memory devoted for MP2                    ...  256 MB   
Memory needed for all in one shot         ...    7 MB
Number of MOs that can be treated together...   42      
MP2 density construction                  ... relaxed
The MP2 gradient is requested => amplitudes will be stored on disk
Total number of MOs              ...    4
Number of MOs treated per batch  ...    1 
Number of batches necessary      ...    1 
OPERATORS   0/  0 PASS   0
-----------------------------------------------
 MP2 CORRELATION ENERGY   :     -0.240360483 Eh
-----------------------------------------------


---------------------
MP2 DENSITY FORMATION
---------------------

Completing the external part of the density      ... done
Storing the unrelaxed density                    ... done

Calculating G(D)                                 ... done
Completing the Lagrangian                        ... done
Solving the Z-vector equations                   ... 

------------------------------------------------------------------------------
                           ORCA CP-SCF CALCULATION
------------------------------------------------------------------------------

Input orbitals are from        ... ammonia_MP2_aug-cc-pVTZ_OPT.gbw
Input Perturbation             ... ammonia_MP2_aug-cc-pVTZ_OPT.pin.tmp
Wavefunction output            ... ammonia_MP2_aug-cc-pVTZ_OPT.pout.tmp
Perturbation mode              ... Real perturbation (singlet)
Solver                         ... POPLE
Max. number of iterations      ... 128
Convergence tolerance          ... 1.000e-08
Integral handling              ... Direct
Number of perturbations        ... 1
Number of operators            ... 1
Orbital ranges used for CP-SCF:
 Operator 0:  Orbitals   0...  4  to   5...114
Variables per vector in CP-SCF ... 550
Number of vectors sought       ... 1
     CP-SCF ITERATION   0: 
     CP-SCF ITERATION   1:      0.000169913294
     CP-SCF ITERATION   2:      0.000004007197
     CP-SCF ITERATION   3:      0.000000223845
     CP-SCF ITERATION   4:      0.000000012958
     CP-SCF ITERATION   5:      0.000000000513
                                                 ... done
Finalizing the relaxed density                   ... done
Transforming P to the AO basis                   ... done
Storing the relaxed density                      ... done

------------------------------------
ENERGY WEIGHTED DENSITY FINALIZATION
------------------------------------

Gathering the parts of the W-matrix              ...                                                      done
Forming the Z-density                            ... done
Transforming Z to the AO basis                   ... done
Calculating G(Z)                                 ... done
Finalizing the W-matrix                          ...                                                      done
Transforming W to the AO basis and storing       ... done

                *********************************************
                * UNRELAXED MP2 DENSITY POPULATION ANALYSIS *
                *********************************************

------------------------------------------------------------------------------
                           ORCA POPULATION ANALYSIS
------------------------------------------------------------------------------
Input electron density              ... ammonia_MP2_aug-cc-pVTZ_OPT.pmp2ur
BaseName (.gbw .S,...)              ... ammonia_MP2_aug-cc-pVTZ_OPT

                    ********************************
                    * MULLIKEN POPULATION ANALYSIS *
                    ********************************

-----------------------
MULLIKEN ATOMIC CHARGES
-----------------------
   0 N :   -0.592244
   1 H :    0.197437
   2 H :    0.197361
   3 H :    0.197446
Sum of atomic charges:    0.0000000

--------------------------------
MULLIKEN REDUCED ORBITAL CHARGES
--------------------------------
  0 N s       :     3.724027  s :     3.724027
      pz      :     1.414022  p :     3.790346
      px      :     1.163037
      py      :     1.213287
      dz2     :     0.019432  d :     0.070934
      dxz     :     0.009879
      dyz     :     0.011775
      dx2y2   :     0.021183
      dxy     :     0.008665
      f0      :     0.000732  f :     0.006937
      f+1     :     0.001266
      f-1     :     0.001369
      f+2     :     0.000665
      f-2     :     0.000806
      f+3     :     0.001286
      f-3     :     0.000813
  1 H s       :     0.709783  s :     0.709783
      pz      :     0.025744  p :     0.079681
      px      :     0.025031
      py      :     0.028906
      dz2     :     0.007374  d :     0.013099
      dxz     :     0.001375
      dyz     :     0.000837
      dx2y2   :     0.002188
      dxy     :     0.001324
  2 H s       :     0.709824  s :     0.709824
      pz      :     0.039713  p :     0.079712
      px      :     0.025038
      py      :     0.014962
      dz2     :     0.000139  d :     0.013103
      dxz     :     0.000475
      dyz     :     0.006758
      dx2y2   :     0.003509
      dxy     :     0.002223
  3 H s       :     0.709767  s :     0.709767
      pz      :     0.039695  p :     0.079683
      px      :     0.012653
      py      :     0.027334
      dz2     :     0.000138  d :     0.013104
      dxz     :     0.007061
      dyz     :     0.000175
      dx2y2   :     0.000769
      dxy     :     0.004962


                     *******************************
                     * LOEWDIN POPULATION ANALYSIS *
                     *******************************

----------------------
LOEWDIN ATOMIC CHARGES
----------------------
   0 N :    1.078499
   1 H :   -0.359391
   2 H :   -0.359722
   3 H :   -0.359386

-------------------------------
LOEWDIN REDUCED ORBITAL CHARGES
-------------------------------
  0 N s       :     2.709467  s :     2.709467
      pz      :     1.069712  p :     3.002965
      px      :     0.955149
      py      :     0.978104
      dz2     :     0.043620  d :     0.175332
      dxz     :     0.015240
      dyz     :     0.025173
      dx2y2   :     0.068246
      dxy     :     0.023053
      f0      :     0.001909  f :     0.033736
      f+1     :     0.006993
      f-1     :     0.007379
      f+2     :     0.001276
      f-2     :     0.003037
      f+3     :     0.009719
      f-3     :     0.003422
  1 H s       :     0.604629  s :     0.604629
      pz      :     0.207152  p :     0.460370
      px      :     0.119583
      py      :     0.133636
      dz2     :     0.098561  d :     0.294392
      dxz     :     0.063206
      dyz     :     0.066991
      dx2y2   :     0.042728
      dxy     :     0.022904
  2 H s       :     0.604683  s :     0.604683
      pz      :     0.141683  p :     0.460574
      px      :     0.119650
      py      :     0.199241
      dz2     :     0.023364  d :     0.294465
      dxz     :     0.006455
      dyz     :     0.100362
      dx2y2   :     0.084604
      dxy     :     0.079681
  3 H s       :     0.604663  s :     0.604663
      pz      :     0.141582  p :     0.460353
      px      :     0.201217
      py      :     0.117554
      dz2     :     0.023360  d :     0.294369
      dxz     :     0.104987
      dyz     :     0.001777
      dx2y2   :     0.060360
      dxy     :     0.103885


                      *****************************
                      * MAYER POPULATION ANALYSIS *
                      *****************************

  NA   - Mulliken gross atomic population
  ZA   - Total nuclear charge
  QA   - Mulliken gross atomic charge
  VA   - Mayer's total valence
  BVA  - Mayer's bonded valence
  FA   - Mayer's free valence

  ATOM       NA         ZA         QA         VA         BVA        FA
  0 N      7.5922     7.0000    -0.5922     3.0813     2.7280     0.3533
  1 H      0.8026     1.0000     0.1974     1.0218     0.9630     0.0588
  2 H      0.8026     1.0000     0.1974     1.0219     0.9630     0.0588
  3 H      0.8026     1.0000     0.1974     1.0218     0.9630     0.0588

  Mayer bond orders larger than 0.100000
B(  0-N ,  1-H ) :   0.9093 B(  0-N ,  2-H ) :   0.9094 B(  0-N ,  3-H ) :   0.9093 



                *******************************************
                * RELAXED MP2 DENSITY POPULATION ANALYSIS *
                *******************************************

------------------------------------------------------------------------------
                           ORCA POPULATION ANALYSIS
------------------------------------------------------------------------------
Input electron density              ... ammonia_MP2_aug-cc-pVTZ_OPT.pmp2re
BaseName (.gbw .S,...)              ... ammonia_MP2_aug-cc-pVTZ_OPT

                    ********************************
                    * MULLIKEN POPULATION ANALYSIS *
                    ********************************

-----------------------
MULLIKEN ATOMIC CHARGES
-----------------------
   0 N :   -0.605834
   1 H :    0.201967
   2 H :    0.201891
   3 H :    0.201976
Sum of atomic charges:    0.0000000

--------------------------------
MULLIKEN REDUCED ORBITAL CHARGES
--------------------------------
  0 N s       :     3.723054  s :     3.723054
      pz      :     1.414243  p :     3.810539
      px      :     1.174109
      py      :     1.222187
      dz2     :     0.018052  d :     0.065477
      dxz     :     0.009762
      dyz     :     0.011399
      dx2y2   :     0.018302
      dxy     :     0.007962
      f0      :     0.000700  f :     0.006764
      f+1     :     0.001254
      f-1     :     0.001360
      f+2     :     0.000656
      f-2     :     0.000798
      f+3     :     0.001222
      f-3     :     0.000773
  1 H s       :     0.699591  s :     0.699591
      pz      :     0.030328  p :     0.086832
      px      :     0.026314
      py      :     0.030191
      dz2     :     0.006319  d :     0.011611
      dxz     :     0.001184
      dyz     :     0.000626
      dx2y2   :     0.002144
      dxy     :     0.001337
  2 H s       :     0.699635  s :     0.699635
      pz      :     0.045376  p :     0.086860
      px      :     0.026321
      py      :     0.015163
      dz2     :     0.000048  d :     0.011614
      dxz     :     0.000501
      dyz     :     0.006115
      dx2y2   :     0.002931
      dxy     :     0.002019
  3 H s       :     0.699578  s :     0.699578
      pz      :     0.045357  p :     0.086831
      px      :     0.011395
      py      :     0.030078
      dz2     :     0.000047  d :     0.011615
      dxz     :     0.006459
      dyz     :     0.000160
      dx2y2   :     0.000342
      dxy     :     0.004607


                     *******************************
                     * LOEWDIN POPULATION ANALYSIS *
                     *******************************

----------------------
LOEWDIN ATOMIC CHARGES
----------------------
   0 N :    1.073157
   1 H :   -0.357611
   2 H :   -0.357942
   3 H :   -0.357604

-------------------------------
LOEWDIN REDUCED ORBITAL CHARGES
-------------------------------
  0 N s       :     2.711238  s :     2.711238
      pz      :     1.068168  p :     3.015902
      px      :     0.963366
      py      :     0.984367
      dz2     :     0.041709  d :     0.166278
      dxz     :     0.014552
      dyz     :     0.023775
      dx2y2   :     0.064606
      dxy     :     0.021636
      f0      :     0.001858  f :     0.033426
      f+1     :     0.006976
      f-1     :     0.007361
      f+2     :     0.001254
      f-2     :     0.003001
      f+3     :     0.009604
      f-3     :     0.003371
  1 H s       :     0.598460  s :     0.598460
      pz      :     0.212039  p :     0.469448
      px      :     0.121671
      py      :     0.135738
      dz2     :     0.095374  d :     0.289704
      dxz     :     0.062845
      dyz     :     0.066520
      dx2y2   :     0.042085
      dxy     :     0.022878
  2 H s       :     0.598517  s :     0.598517
      pz      :     0.147337  p :     0.469648
      px      :     0.121738
      py      :     0.200573
      dz2     :     0.023331  d :     0.289776
      dxz     :     0.006627
      dyz     :     0.097214
      dx2y2   :     0.083482
      dxy     :     0.079121
  3 H s       :     0.598495  s :     0.598495
      pz      :     0.147236  p :     0.469427
      px      :     0.201367
      py      :     0.120824
      dz2     :     0.023328  d :     0.289682
      dxz     :     0.102190
      dyz     :     0.001599
      dx2y2   :     0.060222
      dxy     :     0.102342


                      *****************************
                      * MAYER POPULATION ANALYSIS *
                      *****************************

  NA   - Mulliken gross atomic population
  ZA   - Total nuclear charge
  QA   - Mulliken gross atomic charge
  VA   - Mayer's total valence
  BVA  - Mayer's bonded valence
  FA   - Mayer's free valence

  ATOM       NA         ZA         QA         VA         BVA        FA
  0 N      7.6058     7.0000    -0.6058     3.1008     2.7527     0.3481
  1 H      0.7980     1.0000     0.2020     1.0297     0.9714     0.0582
  2 H      0.7981     1.0000     0.2019     1.0297     0.9715     0.0582
  3 H      0.7980     1.0000     0.2020     1.0297     0.9714     0.0582

  Mayer bond orders larger than 0.100000
B(  0-N ,  1-H ) :   0.9175 B(  0-N ,  2-H ) :   0.9176 B(  0-N ,  3-H ) :   0.9175 



----------------------------------
MP2 DERIVATIVE INTEGRAL GENERATION
----------------------------------


Input Wavefunction Amplitudes       ... ammonia_MP2_aug-cc-pVTZ_OPT.mp2tsaa.tmp
Input Correlated Electron Density   ... ammonia_MP2_aug-cc-pVTZ_OPT.pmp2re
Input Energy Weighted Density       ... ammonia_MP2_aug-cc-pVTZ_OPT.wmp2.tmp
Input SCF Electron Density          ... ammonia_MP2_aug-cc-pVTZ_OPT.scfp

One-Electron Terms    ...
                        ... One-Electron Terms done
Prescreening matrices              ... done

Batch handling in the gradient evaluation:
Memory available                      ...  256.0 MB
Memory per occupied orbital in Q2     ...    0.4 MB
Memory per occupied orbital in Q3     ...    0.0 MB
Total memory requirement per |i>      ...    0.4 MB
Max. Number of orbitals possible      ...    573
Number of orbitals treated per batch  ...      4
Number of batches to be done          ...      1
Batch   0: i=    1 ...     4

---------------------------------------
MP2 TOTAL ENERGY:      -56.460531099 Eh
---------------------------------------

-----------------------------------
NORM OF THE MP2 GRADIENT:  0.003153
-----------------------------------

-------------------------   --------------------
FINAL SINGLE POINT ENERGY       -56.460531099268
-------------------------   --------------------

------------------------------------------------------------------------------
                         ORCA GEOMETRY RELAXATION STEP
------------------------------------------------------------------------------

Reading the OPT-File                    .... done
Getting information on internals        .... done
Copying old internal coords+grads       .... done
Making the new internal coordinates     .... (new redundants).... done
Validating the new internal coordinates .... (new redundants).... done
Calculating the B-matrix                .... done
Calculating the G,G- and P matrices     .... done
Transforming gradient to internals      .... done
Projecting the internal gradient        .... done
Number of atoms                         ....   4
Number of internal coordinates          ....   7
Current Energy                          ....   -56.460531099 Eh
Current gradient norm                   ....     0.003152740 Eh/bohr
Maximum allowed component of the step   ....  0.300
Current trust radius                    ....  0.300
Evaluating the initial hessian          ....  (Almloef) done
Projecting the Hessian                  .... done
Forming the augmented Hessian           .... done
Diagonalizing the augmented Hessian     .... done
Last element of RFO vector              ....  0.999980228
Lowest eigenvalues of augmented Hessian:
 -0.000014079  0.110651264  0.301813308  0.301833780  0.426212927
Length of the computed step             ....  0.006288492
The final length of the internal step   ....  0.006288492
Converting the step to cartesian space:
 Initial RMS(Int)=    0.0023768266
Transforming coordinates:
 Iter   0:  RMS(Cart)=    0.0013451647 RMS(Int)=    0.0023771850
 Iter   1:  RMS(Cart)=    0.0000011548 RMS(Int)=    0.0000019482
 Iter   2:  RMS(Cart)=    0.0000000022 RMS(Int)=    0.0000000032
done
Storing new coordinates                 .... done

                                .--------------------.
          ----------------------|Geometry convergence|-------------------------
          Item                value                   Tolerance       Converged
          ---------------------------------------------------------------------
          RMS gradient        0.0009012412            0.0001000000      NO
          MAX gradient        0.0014178720            0.0003000000      NO
          RMS step            0.0023768266            0.0020000000      NO
          MAX step            0.0033265959            0.0040000000      YES
          ........................................................
          Max(Bonds)      0.0018      Max(Angles)    0.07
          Max(Dihed)        0.00      Max(Improp)    0.14
          ---------------------------------------------------------------------

The optimization has not yet converged - more geometry cycles are needed


    ---------------------------------------------------------------------------
                         Redundant Internal Coordinates
                            (Angstroem and degrees)

        Definition                    Value    dE/dq     Step     New-Value
    ----------------------------------------------------------------------------
     1. B(H   1,N   0)                1.0141  0.001418 -0.0018    1.0124   
     2. B(H   2,N   0)                1.0139  0.001235 -0.0015    1.0124   
     3. B(H   3,N   0)                1.0141  0.001417 -0.0018    1.0123   
     4. A(H   1,N   0,H   3)          106.51 -0.000038    0.05    106.56   
     5. A(H   2,N   0,H   3)          106.51 -0.000209    0.06    106.56   
     6. A(H   1,N   0,H   2)          106.47 -0.000165    0.07    106.54   
     7. I(H   1,H   3,H   2,N   0)    -61.68 -0.000261    0.14    -61.54   
    ----------------------------------------------------------------------------

         *************************************************************
         *                GEOMETRY OPTIMIZATION CYCLE   2            *
         *************************************************************
---------------------------------
CARTESIAN COORDINATES (ANGSTROEM)
---------------------------------
  N     -0.010599   -0.015088    0.026120
  H     -0.324642   -0.458973   -0.827820
  H     -0.324644    0.946410   -0.016430
  H      1.000555    0.009431   -0.016341

----------------------------
CARTESIAN COORDINATES (A.U.)
----------------------------
  NO LB      ZA    FRAG     MASS         X           Y           Z
   0 N     7.0000    0    14.007   -0.020029   -0.028513    0.049361
   1 H     1.0000    0     1.008   -0.613485   -0.867334   -1.564353
   2 H     1.0000    0     1.008   -0.613488    1.788456   -0.031048
   3 H     1.0000    0     1.008    1.890775    0.017823   -0.030880

--------------------------------
INTERNAL COORDINATES (ANGSTROEM)
--------------------------------
 N      0   0   0     0.000000000000     0.00000000     0.00000000
 H      1   0   0     1.012359084943     0.00000000     0.00000000
 H      1   2   0     1.012380662135   106.54373927     0.00000000
 H      1   2   3     1.012341718872   106.56394738   246.50872428

---------------------------
INTERNAL COORDINATES (A.U.)
---------------------------
 N      0   0   0     0.000000000000     0.00000000     0.00000000
 H      1   0   0     1.913081419729     0.00000000     0.00000000
 H      1   2   0     1.913122194713   106.54373927     0.00000000
 H      1   2   3     1.913048602611   106.56394738   246.50872428



           ************************************************************
           *        Program running with 4 parallel MPI-processes     *
           *              working on a common directory               *
           ************************************************************


           ************************************************************
           *        Program running with 4 parallel MPI-processes     *
           *              working on a common directory               *
           ************************************************************

Diagonalization of the overlap matrix:
Smallest eigenvalue                        ... 2.702e-04
Time for diagonalization                   ...    0.002 sec
Threshold for overlap eigenvalues          ... 1.000e-08
Number of eigenvalues below threshold      ... 0
Time for construction of square roots      ...    0.001 sec
Total time needed                          ...    0.003 sec

--------------
SCF ITERATIONS
--------------
ITER       Energy         Delta-E        Max-DP      RMS-DP      [F,P]     Damp
               ***  Starting incremental Fock matrix formation  ***
                      *** Initiating the SOSCF procedure ***
                      *** Re-Reading the Fockian *** 
                      *** Removing any level shift *** 
ITER      Energy       Delta-E        Grad      Rot      Max-DP    RMS-DP
  0    -56.22028620 -56.2202862004  0.000539  0.000539  0.000803  0.000017
               *** Restarting incremental Fock matrix formation ***
  1    -56.22028852  -0.0000023241  0.000132  0.000115  0.000214  0.000005
  2    -56.22028877  -0.0000002432  0.000042  0.000083  0.000150  0.000003
  3    -56.22028881  -0.0000000458  0.000014  0.000018  0.000013  0.000000
  4    -56.22028882  -0.0000000025  0.000004  0.000010  0.000016  0.000000
                 **** Energy Check signals convergence ****
              ***Rediagonalizing the Fockian in SOSCF/NRSCF***

               *****************************************************
               *                     SUCCESS                       *
               *           SCF CONVERGED AFTER   5 CYCLES          *
               *****************************************************

Total Energy       :          -56.22028882 Eh           -1529.83183 eV
  Last Energy change         ...   -2.2560e-10  Tolerance :   1.0000e-08
  Last MAX-Density change    ...    1.9623e-06  Tolerance :   1.0000e-07
             **** THE GBW FILE WAS UPDATED (ammonia_MP2_aug-cc-pVTZ_OPT.gbw) ****
             **** DENSITY FILE WAS UPDATED (ammonia_MP2_aug-cc-pVTZ_OPT.scfp) ****
             **** ENERGY FILE WAS UPDATED (ammonia_MP2_aug-cc-pVTZ_OPT.en.tmp) ****
             **** THE GBW FILE WAS UPDATED (ammonia_MP2_aug-cc-pVTZ_OPT.gbw) ****
             **** DENSITY FILE WAS UPDATED (ammonia_MP2_aug-cc-pVTZ_OPT.scfp) ****
Total SCF time: 0 days 0 hours 0 min 1 sec 


           ************************************************************
           *        Program running with 4 parallel MPI-processes     *
           *              working on a common directory               *
           ************************************************************

------------------------------------------------------------------------------
                                ORCA  MP2 
------------------------------------------------------------------------------

Freezing NCore=2 chemical core electrons
MP2 will be done in the AO integral direct mode
The Q1-step will be done using symmetric double matrices
Dimension of the basis                    ...  115
Memory devoted for MP2                    ...  256 MB   
Memory needed for all in one shot         ...    7 MB
Number of MOs that can be treated together...   42      
MP2 density construction                  ... relaxed
The MP2 gradient is requested => amplitudes will be stored on disk
Total number of MOs              ...    4
Number of MOs treated per batch  ...    1 
Number of batches necessary      ...    1 
OPERATORS   0/  0 PASS   0
-----------------------------------------------
 MP2 CORRELATION ENERGY   :     -0.240249913 Eh
-----------------------------------------------


---------------------
MP2 DENSITY FORMATION
---------------------

Completing the external part of the density      ... done
Storing the unrelaxed density                    ... done

Calculating G(D)                                 ... done
Completing the Lagrangian                        ... done
Solving the Z-vector equations                   ... 

------------------------------------------------------------------------------
                           ORCA CP-SCF CALCULATION
------------------------------------------------------------------------------

Input orbitals are from        ... ammonia_MP2_aug-cc-pVTZ_OPT.gbw
Input Perturbation             ... ammonia_MP2_aug-cc-pVTZ_OPT.pin.tmp
Wavefunction output            ... ammonia_MP2_aug-cc-pVTZ_OPT.pout.tmp
Perturbation mode              ... Real perturbation (singlet)
Solver                         ... POPLE
Max. number of iterations      ... 128
Convergence tolerance          ... 1.000e-08
Integral handling              ... Direct
Number of perturbations        ... 1
Number of operators            ... 1
Orbital ranges used for CP-SCF:
 Operator 0:  Orbitals   0...  4  to   5...114
Variables per vector in CP-SCF ... 550
Number of vectors sought       ... 1
     CP-SCF ITERATION   0: 
     CP-SCF ITERATION   1:      0.000167989767
     CP-SCF ITERATION   2:      0.000003956704
     CP-SCF ITERATION   3:      0.000000219269
     CP-SCF ITERATION   4:      0.000000012624
     CP-SCF ITERATION   5:      0.000000000504
                                                 ... done
Finalizing the relaxed density                   ... done
Transforming P to the AO basis                   ... done
Storing the relaxed density                      ... done

------------------------------------
ENERGY WEIGHTED DENSITY FINALIZATION
------------------------------------

Gathering the parts of the W-matrix              ...                                                      done
Forming the Z-density                            ... done
Transforming Z to the AO basis                   ... done
Calculating G(Z)                                 ... done
Finalizing the W-matrix                          ...                                                      done
Transforming W to the AO basis and storing       ... done

----------------------------------
MP2 DERIVATIVE INTEGRAL GENERATION
----------------------------------


Input Wavefunction Amplitudes       ... ammonia_MP2_aug-cc-pVTZ_OPT.mp2tsaa.tmp
Input Correlated Electron Density   ... ammonia_MP2_aug-cc-pVTZ_OPT.pmp2re
Input Energy Weighted Density       ... ammonia_MP2_aug-cc-pVTZ_OPT.wmp2.tmp
Input SCF Electron Density          ... ammonia_MP2_aug-cc-pVTZ_OPT.scfp

One-Electron Terms    ...
                        ... One-Electron Terms done
Prescreening matrices              ... done

Batch handling in the gradient evaluation:
Memory available                      ...  256.0 MB
Memory per occupied orbital in Q2     ...    0.4 MB
Memory per occupied orbital in Q3     ...    0.0 MB
Total memory requirement per |i>      ...    0.4 MB
Max. Number of orbitals possible      ...    573
Number of orbitals treated per batch  ...      4
Number of batches to be done          ...      1
Batch   0: i=    1 ...     4

---------------------------------------
MP2 TOTAL ENERGY:      -56.460538730 Eh
---------------------------------------

-----------------------------------
NORM OF THE MP2 GRADIENT:  0.000732
-----------------------------------

-------------------------   --------------------
FINAL SINGLE POINT ENERGY       -56.460538729542
-------------------------   --------------------

------------------------------------------------------------------------------
                         ORCA GEOMETRY RELAXATION STEP
------------------------------------------------------------------------------

Reading the OPT-File                    .... done
Getting information on internals        .... done
Copying old internal coords+grads       .... done
Making the new internal coordinates     .... (new redundants).... done
Validating the new internal coordinates .... (new redundants).... done
Calculating the B-matrix                .... done
Calculating the G,G- and P matrices     .... done
Transforming gradient to internals      .... done
Projecting the internal gradient        .... done
Number of atoms                         ....   4
Number of internal coordinates          ....   7
Current Energy                          ....   -56.460538730 Eh
Current gradient norm                   ....     0.000732144 Eh/bohr
Maximum allowed component of the step   ....  0.300
Current trust radius                    ....  0.300
Updating the Hessian (BFGS)             .... done
Forming the augmented Hessian           .... done
Diagonalizing the augmented Hessian     .... done
Last element of RFO vector              ....  0.999990611
Lowest eigenvalues of augmented Hessian:
 -0.000001816  0.091206892  0.293647615  0.301884399  0.426207330
Length of the computed step             ....  0.004333445
The final length of the internal step   ....  0.004333445
Converting the step to cartesian space:
 Initial RMS(Int)=    0.0016378881
Transforming coordinates:
 Iter   0:  RMS(Cart)=    0.0007387161 RMS(Int)=    0.0016378601
 Iter   1:  RMS(Cart)=    0.0000009338 RMS(Int)=    0.0000012941
 Iter   2:  RMS(Cart)=    0.0000000010 RMS(Int)=    0.0000000018
done
Storing new coordinates                 .... done

                                .--------------------.
          ----------------------|Geometry convergence|-------------------------
          Item                value                   Tolerance       Converged
          ---------------------------------------------------------------------
          Energy change      -0.0000076303            0.0000050000      NO
          RMS gradient        0.0001700617            0.0001000000      NO
          MAX gradient        0.0003152860            0.0003000000      NO
          RMS step            0.0016378881            0.0020000000      YES
          MAX step            0.0033716832            0.0040000000      YES
          ........................................................
          Max(Bonds)      0.0002      Max(Angles)    0.10
          Max(Dihed)        0.00      Max(Improp)    0.19
          ---------------------------------------------------------------------

The optimization has not yet converged - more geometry cycles are needed


    ---------------------------------------------------------------------------
                         Redundant Internal Coordinates
                            (Angstroem and degrees)

        Definition                    Value    dE/dq     Step     New-Value
    ----------------------------------------------------------------------------
     1. B(H   1,N   0)                1.0124 -0.000024 -0.0002    1.0122   
     2. B(H   2,N   0)                1.0124 -0.000006 -0.0002    1.0122   
     3. B(H   3,N   0)                1.0123 -0.000032 -0.0002    1.0122   
     4. A(H   1,N   0,H   3)          106.56 -0.000093    0.08    106.65   
     5. A(H   2,N   0,H   3)          106.56 -0.000267    0.08    106.65   
     6. A(H   1,N   0,H   2)          106.54 -0.000146    0.10    106.64   
     7. I(H   1,H   3,H   2,N   0)    -61.54 -0.000315    0.19    -61.35   
    ----------------------------------------------------------------------------

         *************************************************************
         *                GEOMETRY OPTIMIZATION CYCLE   3            *
         *************************************************************
---------------------------------
CARTESIAN COORDINATES (ANGSTROEM)
---------------------------------
  N     -0.010291   -0.014592    0.025270
  H     -0.324890   -0.459424   -0.827755
  H     -0.324906    0.946586   -0.016007
  H      1.000757    0.009210   -0.015978

----------------------------
CARTESIAN COORDINATES (A.U.)
----------------------------
  NO LB      ZA    FRAG     MASS         X           Y           Z
   0 N     7.0000    0    14.007   -0.019447   -0.027575    0.047754
   1 H     1.0000    0     1.008   -0.613953   -0.868185   -1.564231
   2 H     1.0000    0     1.008   -0.613984    1.788788   -0.030249
   3 H     1.0000    0     1.008    1.891156    0.017405   -0.030194

--------------------------------
INTERNAL COORDINATES (ANGSTROEM)
--------------------------------
 N      0   0   0     0.000000000000     0.00000000     0.00000000
 H      1   0   0     1.012175860997     0.00000000     0.00000000
 H      1   2   0     1.012200177182   106.63963771     0.00000000
 H      1   2   3     1.012168422368   106.64620253   246.33146979

---------------------------
INTERNAL COORDINATES (A.U.)
---------------------------
 N      0   0   0     0.000000000000     0.00000000     0.00000000
 H      1   0   0     1.912735176650     0.00000000     0.00000000
 H      1   2   0     1.912781127581   106.63963771     0.00000000
 H      1   2   3     1.912721119678   106.64620253   246.33146979



           ************************************************************
           *        Program running with 4 parallel MPI-processes     *
           *              working on a common directory               *
           ************************************************************


           ************************************************************
           *        Program running with 4 parallel MPI-processes     *
           *              working on a common directory               *
           ************************************************************

Diagonalization of the overlap matrix:
Smallest eigenvalue                        ... 2.702e-04
Time for diagonalization                   ...    0.002 sec
Threshold for overlap eigenvalues          ... 1.000e-08
Number of eigenvalues below threshold      ... 0
Time for construction of square roots      ...    0.001 sec
Total time needed                          ...    0.002 sec

--------------
SCF ITERATIONS
--------------
ITER       Energy         Delta-E        Max-DP      RMS-DP      [F,P]     Damp
               ***  Starting incremental Fock matrix formation  ***
                      *** Initiating the SOSCF procedure ***
                      *** Re-Reading the Fockian *** 
                      *** Removing any level shift *** 
ITER      Energy       Delta-E        Grad      Rot      Max-DP    RMS-DP
  0    -56.22030853 -56.2203085283  0.000269  0.000269  0.000420  0.000010
               *** Restarting incremental Fock matrix formation ***
  1    -56.22030899  -0.0000004643  0.000084  0.000071  0.000189  0.000004
  2    -56.22030906  -0.0000000635  0.000028  0.000037  0.000101  0.000002
  3    -56.22030907  -0.0000000097  0.000003  0.000007  0.000006  0.000000
                  ***Gradient check signals convergence***
              ***Rediagonalizing the Fockian in SOSCF/NRSCF***

               *****************************************************
               *                     SUCCESS                       *
               *           SCF CONVERGED AFTER   4 CYCLES          *
               *****************************************************

Total Energy       :          -56.22030907 Eh           -1529.83238 eV
  Last Energy change         ...   -1.9709e-10  Tolerance :   1.0000e-08
  Last MAX-Density change    ...    1.9481e-06  Tolerance :   1.0000e-07
             **** THE GBW FILE WAS UPDATED (ammonia_MP2_aug-cc-pVTZ_OPT.gbw) ****
             **** DENSITY FILE WAS UPDATED (ammonia_MP2_aug-cc-pVTZ_OPT.scfp) ****
             **** ENERGY FILE WAS UPDATED (ammonia_MP2_aug-cc-pVTZ_OPT.en.tmp) ****
             **** THE GBW FILE WAS UPDATED (ammonia_MP2_aug-cc-pVTZ_OPT.gbw) ****
             **** DENSITY FILE WAS UPDATED (ammonia_MP2_aug-cc-pVTZ_OPT.scfp) ****
Total SCF time: 0 days 0 hours 0 min 1 sec 


           ************************************************************
           *        Program running with 4 parallel MPI-processes     *
           *              working on a common directory               *
           ************************************************************

------------------------------------------------------------------------------
                                ORCA  MP2 
------------------------------------------------------------------------------

Freezing NCore=2 chemical core electrons
MP2 will be done in the AO integral direct mode
The Q1-step will be done using symmetric double matrices
Dimension of the basis                    ...  115
Memory devoted for MP2                    ...  256 MB   
Memory needed for all in one shot         ...    7 MB
Number of MOs that can be treated together...   42      
MP2 density construction                  ... relaxed
The MP2 gradient is requested => amplitudes will be stored on disk
Total number of MOs              ...    4
Number of MOs treated per batch  ...    1 
Number of batches necessary      ...    1 
OPERATORS   0/  0 PASS   0
-----------------------------------------------
 MP2 CORRELATION ENERGY   :     -0.240231057 Eh
-----------------------------------------------


---------------------
MP2 DENSITY FORMATION
---------------------

Completing the external part of the density      ... done
Storing the unrelaxed density                    ... done

Calculating G(D)                                 ... done
Completing the Lagrangian                        ... done
Solving the Z-vector equations                   ... 

------------------------------------------------------------------------------
                           ORCA CP-SCF CALCULATION
------------------------------------------------------------------------------

Input orbitals are from        ... ammonia_MP2_aug-cc-pVTZ_OPT.gbw
Input Perturbation             ... ammonia_MP2_aug-cc-pVTZ_OPT.pin.tmp
Wavefunction output            ... ammonia_MP2_aug-cc-pVTZ_OPT.pout.tmp
Perturbation mode              ... Real perturbation (singlet)
Solver                         ... POPLE
Max. number of iterations      ... 128
Convergence tolerance          ... 1.000e-08
Integral handling              ... Direct
Number of perturbations        ... 1
Number of operators            ... 1
Orbital ranges used for CP-SCF:
 Operator 0:  Orbitals   0...  4  to   5...114
Variables per vector in CP-SCF ... 550
Number of vectors sought       ... 1
     CP-SCF ITERATION   0: 
     CP-SCF ITERATION   1:      0.000167741483
     CP-SCF ITERATION   2:      0.000003946058
     CP-SCF ITERATION   3:      0.000000218106
     CP-SCF ITERATION   4:      0.000000012551
     CP-SCF ITERATION   5:      0.000000000504
                                                 ... done
Finalizing the relaxed density                   ... done
Transforming P to the AO basis                   ... done
Storing the relaxed density                      ... done

------------------------------------
ENERGY WEIGHTED DENSITY FINALIZATION
------------------------------------

Gathering the parts of the W-matrix              ...                                                      done
Forming the Z-density                            ... done
Transforming Z to the AO basis                   ... done
Calculating G(Z)                                 ... done
Finalizing the W-matrix                          ...                                                      done
Transforming W to the AO basis and storing       ... done

----------------------------------
MP2 DERIVATIVE INTEGRAL GENERATION
----------------------------------


Input Wavefunction Amplitudes       ... ammonia_MP2_aug-cc-pVTZ_OPT.mp2tsaa.tmp
Input Correlated Electron Density   ... ammonia_MP2_aug-cc-pVTZ_OPT.pmp2re
Input Energy Weighted Density       ... ammonia_MP2_aug-cc-pVTZ_OPT.wmp2.tmp
Input SCF Electron Density          ... ammonia_MP2_aug-cc-pVTZ_OPT.scfp

One-Electron Terms    ...
                        ... One-Electron Terms done
Prescreening matrices              ... done

Batch handling in the gradient evaluation:
Memory available                      ...  256.0 MB
Memory per occupied orbital in Q2     ...    0.4 MB
Memory per occupied orbital in Q3     ...    0.0 MB
Total memory requirement per |i>      ...    0.4 MB
Max. Number of orbitals possible      ...    573
Number of orbitals treated per batch  ...      4
Number of batches to be done          ...      1
Batch   0: i=    1 ...     4

---------------------------------------
MP2 TOTAL ENERGY:      -56.460540123 Eh
---------------------------------------

-----------------------------------
NORM OF THE MP2 GRADIENT:  0.000408
-----------------------------------

-------------------------   --------------------
FINAL SINGLE POINT ENERGY       -56.460540123194
-------------------------   --------------------

------------------------------------------------------------------------------
                         ORCA GEOMETRY RELAXATION STEP
------------------------------------------------------------------------------

Reading the OPT-File                    .... done
Getting information on internals        .... done
Copying old internal coords+grads       .... done
Making the new internal coordinates     .... (new redundants).... done
Validating the new internal coordinates .... (new redundants).... done
Calculating the B-matrix                .... done
Calculating the G,G- and P matrices     .... done
Transforming gradient to internals      .... done
Projecting the internal gradient        .... done
Number of atoms                         ....   4
Number of internal coordinates          ....   7
Current Energy                          ....   -56.460540123 Eh
Current gradient norm                   ....     0.000408374 Eh/bohr
Maximum allowed component of the step   ....  0.300
Current trust radius                    ....  0.300
Updating the Hessian (BFGS)             .... done
Forming the augmented Hessian           .... done
Diagonalizing the augmented Hessian     .... done
Last element of RFO vector              ....  0.999981637
Lowest eigenvalues of augmented Hessian:
 -0.000001547  0.040063627  0.287023517  0.301982208  0.426218234
Length of the computed step             ....  0.006060238
The final length of the internal step   ....  0.006060238
Converting the step to cartesian space:
 Initial RMS(Int)=    0.0022905548
Transforming coordinates:
 Iter   0:  RMS(Cart)=    0.0010983679 RMS(Int)=    0.0022903167
 Iter   1:  RMS(Cart)=    0.0000017742 RMS(Int)=    0.0000025608
 Iter   2:  RMS(Cart)=    0.0000000029 RMS(Int)=    0.0000000050
done
Storing new coordinates                 .... done

                                .--------------------.
          ----------------------|Geometry convergence|-------------------------
          Item                value                   Tolerance       Converged
          ---------------------------------------------------------------------
          Energy change      -0.0000013937            0.0000050000      YES
          RMS gradient        0.0001163876            0.0001000000      NO
          MAX gradient        0.0001924075            0.0003000000      YES
          RMS step            0.0022905548            0.0020000000      NO
          MAX step            0.0047623607            0.0040000000      NO
          ........................................................
          Max(Bonds)      0.0001      Max(Angles)    0.13
          Max(Dihed)        0.00      Max(Improp)    0.27
          ---------------------------------------------------------------------

The optimization has not yet converged - more geometry cycles are needed


    ---------------------------------------------------------------------------
                         Redundant Internal Coordinates
                            (Angstroem and degrees)

        Definition                    Value    dE/dq     Step     New-Value
    ----------------------------------------------------------------------------
     1. B(H   1,N   0)                1.0122 -0.000088 -0.0001    1.0121   
     2. B(H   2,N   0)                1.0122 -0.000066 -0.0001    1.0121   
     3. B(H   3,N   0)                1.0122 -0.000091 -0.0001    1.0121   
     4. A(H   1,N   0,H   3)          106.65 -0.000064    0.12    106.77   
     5. A(H   2,N   0,H   3)          106.65 -0.000164    0.12    106.77   
     6. A(H   1,N   0,H   2)          106.64 -0.000080    0.13    106.77   
     7. I(H   1,H   3,H   2,N   0)    -61.35 -0.000192    0.27    -61.07   
    ----------------------------------------------------------------------------

         *************************************************************
         *                GEOMETRY OPTIMIZATION CYCLE   4            *
         *************************************************************
---------------------------------
CARTESIAN COORDINATES (ANGSTROEM)
---------------------------------
  N     -0.009860   -0.013916    0.024115
[...]
OPERATORS   0/  0 PASS   0
-----------------------------------------------
 MP2 CORRELATION ENERGY   :     -0.240216581 Eh
-----------------------------------------------


---------------------
MP2 DENSITY FORMATION
---------------------

Completing the external part of the density      ... done
Storing the unrelaxed density                    ... done

Calculating G(D)                                 ... done
Completing the Lagrangian                        ... done
Solving the Z-vector equations                   ... 

------------------------------------------------------------------------------
                           ORCA CP-SCF CALCULATION
------------------------------------------------------------------------------

Input orbitals are from        ... ammonia_MP2_aug-cc-pVTZ_OPT.gbw
Input Perturbation             ... ammonia_MP2_aug-cc-pVTZ_OPT.pin.tmp
Wavefunction output            ... ammonia_MP2_aug-cc-pVTZ_OPT.pout.tmp
Perturbation mode              ... Real perturbation (singlet)
Solver                         ... POPLE
Max. number of iterations      ... 128
Convergence tolerance          ... 1.000e-08
Integral handling              ... Direct
Number of perturbations        ... 1
Number of operators            ... 1
Orbital ranges used for CP-SCF:
 Operator 0:  Orbitals   0...  4  to   5...114
Variables per vector in CP-SCF ... 550
Number of vectors sought       ... 1
     CP-SCF ITERATION   0: 
     CP-SCF ITERATION   1:      0.000167604266
     CP-SCF ITERATION   2:      0.000003936208
     CP-SCF ITERATION   3:      0.000000216906
     CP-SCF ITERATION   4:      0.000000012482
     CP-SCF ITERATION   5:      0.000000000504
                                                 ... done
Finalizing the relaxed density                   ... done
Transforming P to the AO basis                   ... done
Storing the relaxed density                      ... done

------------------------------------
ENERGY WEIGHTED DENSITY FINALIZATION
------------------------------------

Gathering the parts of the W-matrix              ...                                                      done
Forming the Z-density                            ... done
Transforming Z to the AO basis                   ... done
Calculating G(Z)                                 ... done
Finalizing the W-matrix                          ...                                                      done
Transforming W to the AO basis and storing       ... done

                *********************************************
                * UNRELAXED MP2 DENSITY POPULATION ANALYSIS *
                *********************************************

------------------------------------------------------------------------------
                           ORCA POPULATION ANALYSIS
------------------------------------------------------------------------------
Input electron density              ... ammonia_MP2_aug-cc-pVTZ_OPT.pmp2ur
BaseName (.gbw .S,...)              ... ammonia_MP2_aug-cc-pVTZ_OPT

                    ********************************
                    * MULLIKEN POPULATION ANALYSIS *
                    ********************************

-----------------------
MULLIKEN ATOMIC CHARGES
-----------------------
   0 N :   -0.591313
   1 H :    0.197104
   2 H :    0.197105
   3 H :    0.197104
Sum of atomic charges:   -0.0000000

--------------------------------
MULLIKEN REDUCED ORBITAL CHARGES
--------------------------------
  0 N s       :     3.722360  s :     3.722360
      pz      :     1.416102  p :     3.791716
      px      :     1.162445
      py      :     1.213170
      dz2     :     0.019182  d :     0.070294
      dxz     :     0.009800
      dyz     :     0.011700
      dx2y2   :     0.020969
      dxy     :     0.008643
      f0      :     0.000722  f :     0.006943
      f+1     :     0.001272
      f-1     :     0.001375
      f+2     :     0.000662
      f-2     :     0.000811
      f+3     :     0.001294
      f-3     :     0.000808
  1 H s       :     0.709803  s :     0.709803
      pz      :     0.026088  p :     0.079936
      px      :     0.024982
      py      :     0.028867
      dz2     :     0.007445  d :     0.013157
      dxz     :     0.001343
      dyz     :     0.000814
      dx2y2   :     0.002223
      dxy     :     0.001333
  2 H s       :     0.709802  s :     0.709802
      pz      :     0.039972  p :     0.079936
      px      :     0.024982
      py      :     0.014982
      dz2     :     0.000148  d :     0.013157
      dxz     :     0.000479
      dyz     :     0.006783
      dx2y2   :     0.003551
      dxy     :     0.002196
  3 H s       :     0.709804  s :     0.709804
      pz      :     0.039972  p :     0.079936
      px      :     0.012575
      py      :     0.027388
      dz2     :     0.000148  d :     0.013157
      dxz     :     0.007087
      dyz     :     0.000174
      dx2y2   :     0.000786
      dxy     :     0.004960


                     *******************************
                     * LOEWDIN POPULATION ANALYSIS *
                     *******************************

----------------------
LOEWDIN ATOMIC CHARGES
----------------------
   0 N :    1.081744
   1 H :   -0.360582
   2 H :   -0.360582
   3 H :   -0.360581

-------------------------------
LOEWDIN REDUCED ORBITAL CHARGES
-------------------------------
  0 N s       :     2.707406  s :     2.707406
      pz      :     1.069227  p :     3.002148
      px      :     0.955041
      py      :     0.977880
      dz2     :     0.043289  d :     0.175118
      dxz     :     0.015228
      dyz     :     0.025198
      dx2y2   :     0.068152
      dxy     :     0.023251
      f0      :     0.001821  f :     0.033583
      f+1     :     0.006997
      f-1     :     0.007363
      f+2     :     0.001250
      f-2     :     0.003072
      f+3     :     0.009719
      f-3     :     0.003361
  1 H s       :     0.605097  s :     0.605097
      pz      :     0.207293  p :     0.461048
      px      :     0.119764
      py      :     0.133992
      dz2     :     0.098405  d :     0.294437
      dxz     :     0.062992
      dyz     :     0.066824
      dx2y2   :     0.043037
      dxy     :     0.023179
  2 H s       :     0.605098  s :     0.605098
      pz      :     0.141981  p :     0.461048
      px      :     0.119763
      py      :     0.199305
      dz2     :     0.023410  d :     0.294436
      dxz     :     0.006553
      dyz     :     0.100186
      dx2y2   :     0.084670
      dxy     :     0.079617
  3 H s       :     0.605095  s :     0.605095
      pz      :     0.141982  p :     0.461048
      px      :     0.201385
      py      :     0.117682
      dz2     :     0.023410  d :     0.294437
      dxz     :     0.105005
      dyz     :     0.001735
      dx2y2   :     0.060404
      dxy     :     0.103883


                      *****************************
                      * MAYER POPULATION ANALYSIS *
                      *****************************

  NA   - Mulliken gross atomic population
  ZA   - Total nuclear charge
  QA   - Mulliken gross atomic charge
  VA   - Mayer's total valence
  BVA  - Mayer's bonded valence
  FA   - Mayer's free valence

  ATOM       NA         ZA         QA         VA         BVA        FA
  0 N      7.5913     7.0000    -0.5913     3.0833     2.7308     0.3525
  1 H      0.8029     1.0000     0.1971     1.0220     0.9634     0.0586
  2 H      0.8029     1.0000     0.1971     1.0220     0.9634     0.0586
  3 H      0.8029     1.0000     0.1971     1.0220     0.9634     0.0586

  Mayer bond orders larger than 0.100000
B(  0-N ,  1-H ) :   0.9103 B(  0-N ,  2-H ) :   0.9103 B(  0-N ,  3-H ) :   0.9103 



                *******************************************
                * RELAXED MP2 DENSITY POPULATION ANALYSIS *
                *******************************************

------------------------------------------------------------------------------
                           ORCA POPULATION ANALYSIS
------------------------------------------------------------------------------
Input electron density              ... ammonia_MP2_aug-cc-pVTZ_OPT.pmp2re
BaseName (.gbw .S,...)              ... ammonia_MP2_aug-cc-pVTZ_OPT

                    ********************************
                    * MULLIKEN POPULATION ANALYSIS *
                    ********************************

-----------------------
MULLIKEN ATOMIC CHARGES
-----------------------
   0 N :   -0.605107
   1 H :    0.201703
   2 H :    0.201703
   3 H :    0.201702
Sum of atomic charges:   -0.0000000

--------------------------------
MULLIKEN REDUCED ORBITAL CHARGES
--------------------------------
  0 N s       :     3.721535  s :     3.721535
      pz      :     1.416312  p :     3.811936
      px      :     1.173538
      py      :     1.222086
      dz2     :     0.017821  d :     0.064867
      dxz     :     0.009682
      dyz     :     0.011324
      dx2y2   :     0.018106
      dxy     :     0.007934
      f0      :     0.000692  f :     0.006769
      f+1     :     0.001259
      f-1     :     0.001365
      f+2     :     0.000654
      f-2     :     0.000802
      f+3     :     0.001228
      f-3     :     0.000768
  1 H s       :     0.699643  s :     0.699643
      pz      :     0.030634  p :     0.087006
      px      :     0.026246
      py      :     0.030126
      dz2     :     0.006379  d :     0.011649
      dxz     :     0.001152
      dyz     :     0.000601
      dx2y2   :     0.002174
      dxy     :     0.001343
  2 H s       :     0.699642  s :     0.699642
      pz      :     0.045597  p :     0.087006
      px      :     0.026246
      py      :     0.015163
      dz2     :     0.000056  d :     0.011649
      dxz     :     0.000505
      dyz     :     0.006132
      dx2y2   :     0.002967
      dxy     :     0.001990
  3 H s       :     0.699644  s :     0.699644
      pz      :     0.045597  p :     0.087006
      px      :     0.011300
      py      :     0.030109
      dz2     :     0.000056  d :     0.011648
      dxz     :     0.006475
      dyz     :     0.000161
      dx2y2   :     0.000356
      dxy     :     0.004601


                     *******************************
                     * LOEWDIN POPULATION ANALYSIS *
                     *******************************

----------------------
LOEWDIN ATOMIC CHARGES
----------------------
   0 N :    1.076360
   1 H :   -0.358787
   2 H :   -0.358787
   3 H :   -0.358786

-------------------------------
LOEWDIN REDUCED ORBITAL CHARGES
-------------------------------
  0 N s       :     2.709183  s :     2.709183
      pz      :     1.067750  p :     3.015087
      px      :     0.963214
      py      :     0.984122
      dz2     :     0.041396  d :     0.166094
      dxz     :     0.014542
      dyz     :     0.023807
      dx2y2   :     0.064523
      dxy     :     0.021826
      f0      :     0.001773  f :     0.033277
      f+1     :     0.006980
      f-1     :     0.007345
      f+2     :     0.001229
      f-2     :     0.003035
      f+3     :     0.009604
      f-3     :     0.003311
  1 H s       :     0.598961  s :     0.598961
      pz      :     0.212137  p :     0.470074
      px      :     0.121852
      py      :     0.136085
      dz2     :     0.095198  d :     0.289752
      dxz     :     0.062641
      dyz     :     0.066370
      dx2y2   :     0.042394
      dxy     :     0.023148
  2 H s       :     0.598962  s :     0.598962
      pz      :     0.147604  p :     0.470074
      px      :     0.121851
      py      :     0.200619
      dz2     :     0.023380  d :     0.289751
      dxz     :     0.006723
      dyz     :     0.097042
      dx2y2   :     0.083541
      dxy     :     0.079066
  3 H s       :     0.598959  s :     0.598959
      pz      :     0.147605  p :     0.470075
      px      :     0.201524
      py      :     0.120945
      dz2     :     0.023380  d :     0.289752
      dxz     :     0.102201
      dyz     :     0.001565
      dx2y2   :     0.060263
      dxy     :     0.102344


                      *****************************
                      * MAYER POPULATION ANALYSIS *
                      *****************************

  NA   - Mulliken gross atomic population
  ZA   - Total nuclear charge
  QA   - Mulliken gross atomic charge
  VA   - Mayer's total valence
  BVA  - Mayer's bonded valence
  FA   - Mayer's free valence

  ATOM       NA         ZA         QA         VA         BVA        FA
  0 N      7.6051     7.0000    -0.6051     3.1024     2.7550     0.3474
  1 H      0.7983     1.0000     0.2017     1.0297     0.9717     0.0581
  2 H      0.7983     1.0000     0.2017     1.0297     0.9717     0.0581
  3 H      0.7983     1.0000     0.2017     1.0297     0.9717     0.0581

  Mayer bond orders larger than 0.100000
B(  0-N ,  1-H ) :   0.9183 B(  0-N ,  2-H ) :   0.9183 B(  0-N ,  3-H ) :   0.9183 



----------------------------------
MP2 DERIVATIVE INTEGRAL GENERATION
----------------------------------


Input Wavefunction Amplitudes       ... ammonia_MP2_aug-cc-pVTZ_OPT.mp2tsaa.tmp
Input Correlated Electron Density   ... ammonia_MP2_aug-cc-pVTZ_OPT.pmp2re
Input Energy Weighted Density       ... ammonia_MP2_aug-cc-pVTZ_OPT.wmp2.tmp
Input SCF Electron Density          ... ammonia_MP2_aug-cc-pVTZ_OPT.scfp

One-Electron Terms    ...
                        ... One-Electron Terms done
Prescreening matrices              ... done

Batch handling in the gradient evaluation:
Memory available                      ...  256.0 MB
Memory per occupied orbital in Q2     ...    0.4 MB
Memory per occupied orbital in Q3     ...    0.0 MB
Total memory requirement per |i>      ...    0.4 MB
Max. Number of orbitals possible      ...    573
Number of orbitals treated per batch  ...      4
Number of batches to be done          ...      1
Batch   0: i=    1 ...     4

---------------------------------------
MP2 TOTAL ENERGY:      -56.460540907 Eh
---------------------------------------

-----------------------------------
NORM OF THE MP2 GRADIENT:  0.000007
-----------------------------------

-------------------------   --------------------
FINAL SINGLE POINT ENERGY       -56.460540906950
-------------------------   --------------------

                                *** OPTIMIZATION RUN DONE ***

                            ***************************************
                            *     ORCA property calculations      *
                            ***************************************

                                    ---------------------
                                    Active property flags
                                    ---------------------
   (+) Dipole Moment


------------------------------------------------------------------------------
                       ORCA ELECTRIC PROPERTIES CALCULATION
------------------------------------------------------------------------------

Dipole Moment Calculation                       ... on
Quadrupole Moment Calculation                   ... off
Polarizability Calculation                      ... off
GBWName                                         ... ammonia_MP2_aug-cc-pVTZ_OPT.gbw
Electron density file                           ... ammonia_MP2_aug-cc-pVTZ_OPT.scfp
The origin for moment calculation is the CENTER OF MASS  = ( 0.023898,  0.033820 -0.058569)

-------------
DIPOLE MOMENT
-------------
                                X             Y             Z
Electronic contribution:     -0.08171      -0.11553       0.20011
Nuclear contribution   :      0.29313       0.41450      -0.71796
                        -----------------------------------------
Total Dipole Moment    :      0.21142       0.29897      -0.51784
                        -----------------------------------------
Magnitude (a.u.)       :      0.63423
Magnitude (Debye)      :      1.61208



--------------------
Rotational spectrum 
--------------------
 
Rotational constants in cm-1:     9.976889     9.976555     6.335040 
Rotational constants in MHz : 299099.614585 299089.593409 189919.734036 

 Dipole components along the rotational axes: 
x,y,z [a.u.] :     0.000009    -0.000014    -0.634227 
x,y,z [Debye]:     0.000023    -0.000036    -1.612076 

 

                         *** MP2 UNRELAXED DENSITY ***

------------------------------------------------------------------------------
                       ORCA ELECTRIC PROPERTIES CALCULATION
------------------------------------------------------------------------------

Dipole Moment Calculation                       ... on
Quadrupole Moment Calculation                   ... off
Polarizability Calculation                      ... off
GBWName                                         ... ammonia_MP2_aug-cc-pVTZ_OPT.gbw
Electron density file                           ... ammonia_MP2_aug-cc-pVTZ_OPT.pmp2ur
The origin for moment calculation is the CENTER OF MASS  = ( 0.023898,  0.033820 -0.058569)

-------------
DIPOLE MOMENT
-------------
                                X             Y             Z
Electronic contribution:     -0.08496      -0.12013       0.20808
Nuclear contribution   :      0.29313       0.41450      -0.71796
                        -----------------------------------------
Total Dipole Moment    :      0.20817       0.29437      -0.50988
                        -----------------------------------------
Magnitude (a.u.)       :      0.62448
Magnitude (Debye)      :      1.58729



--------------------
Rotational spectrum 
--------------------
 
Rotational constants in cm-1:     9.976889     9.976555     6.335040 
Rotational constants in MHz : 299099.614585 299089.593409 189919.734036 

 Dipole components along the rotational axes: 
x,y,z [a.u.] :     0.000009    -0.000014    -0.624475 
x,y,z [Debye]:     0.000023    -0.000035    -1.587290 

 

                           *** MP2 RELAXED DENSITY ***

------------------------------------------------------------------------------
                       ORCA ELECTRIC PROPERTIES CALCULATION
------------------------------------------------------------------------------

Dipole Moment Calculation                       ... on
Quadrupole Moment Calculation                   ... off
Polarizability Calculation                      ... off
GBWName                                         ... ammonia_MP2_aug-cc-pVTZ_OPT.gbw
Electron density file                           ... ammonia_MP2_aug-cc-pVTZ_OPT.pmp2re
The origin for moment calculation is the CENTER OF MASS  = ( 0.023898,  0.033820 -0.058569)

-------------
DIPOLE MOMENT
-------------
                                X             Y             Z
Electronic contribution:     -0.09388      -0.13273       0.22992
Nuclear contribution   :      0.29313       0.41450      -0.71796
                        -----------------------------------------
Total Dipole Moment    :      0.19925       0.28177      -0.48804
                        -----------------------------------------
Magnitude (a.u.)       :      0.59773
Magnitude (Debye)      :      1.51930



--------------------
Rotational spectrum 
--------------------
 
Rotational constants in cm-1:     9.976889     9.976555     6.335040 
Rotational constants in MHz : 299099.614585 299089.593409 189919.734036 

 Dipole components along the rotational axes: 
x,y,z [a.u.] :     0.000009    -0.000013    -0.597726 
x,y,z [Debye]:     0.000022    -0.000033    -1.519299 

 

Timings for individual modules:

Sum of individual times         ...       41.635 sec (=   0.694 min)
GTO integral calculation        ...        1.752 sec (=   0.029 min)   4.2 %
SCF iterations                  ...       10.971 sec (=   0.183 min)  26.3 %
MP2 module                      ...       28.830 sec (=   0.480 min)  69.2 %
Geometry relaxation             ...        0.083 sec (=   0.001 min)   0.2 %
                             ****ORCA TERMINATED NORMALLY****
TOTAL RUN TIME: 0 days 0 hours 0 minutes 41 seconds 999 msec
