
                                 *****************
                                 * O   R   C   A *
                                 *****************

           --- An Ab Initio, DFT and Semiempirical electronic structure package ---

                  #######################################################
                  #                        -***-                        #
                  #          Department of theory and spectroscopy      #
                  #               Directorship: Frank Neese             #
                  #        Max Planck Institute fuer Kohlenforschung    #
                  #                Kaiser Wilhelm Platz 1               #
                  #                 D-45470 Muelheim/Ruhr               #
                  #                      Germany                        #
                  #                                                     #
                  #                  All rights reserved                #
                  #                        -***-                        #
                  #######################################################


                         Program Version 4.2.1 -  RELEASE  -


 With contributions from (in alphabetic order):
   Daniel Aravena         : Magnetic Suceptibility
   Michael Atanasov       : Ab Initio Ligand Field Theory (pilot matlab implementation)
   Alexander A. Auer      : GIAO ZORA, VPT2
   Ute Becker             : Parallelization
   Giovanni Bistoni       : ED, misc. LED, open-shell LED, HFLD
   Martin Brehm           : Molecular dynamics
   Dmytro Bykov           : SCF Hessian
   Vijay G. Chilkuri      : MRCI spin determinant printing, contributions to CSF-ICE
   Dipayan Datta          : RHF DLPNO-CCSD density
   Achintya Kumar Dutta   : EOM-CC, STEOM-CC
   Dmitry Ganyushin       : Spin-Orbit,Spin-Spin,Magnetic field MRCI
   Miquel Garcia          : C-PCM Hessian, Gaussian charge scheme
   Yang Guo               : DLPNO-NEVPT2, CIM, IAO-localization
   Andreas Hansen         : Spin unrestricted coupled pair/coupled cluster methods
   Benjamin Helmich-Paris : CASSCF linear response (MC-RPA)
   Lee Huntington         : MR-EOM, pCC
   Robert Izsak           : Overlap fitted RIJCOSX, COSX-SCS-MP3, EOM
   Christian Kollmar      : KDIIS, OOCD, Brueckner-CCSD(T), CCSD density
   Simone Kossmann        : Meta GGA functionals, TD-DFT gradient, OOMP2, MP2 Hessian
   Martin Krupicka        : AUTO-CI
   Lucas Lang             : DCDCAS
   Dagmar Lenk            : GEPOL surface, SMD
   Dimitrios Liakos       : Extrapolation schemes; Compound Job, initial MDCI parallelization
   Dimitrios Manganas     : Further ROCIS development; embedding schemes
   Dimitrios Pantazis     : SARC Basis sets
   Taras Petrenko         : DFT Hessian,TD-DFT gradient, ASA, ECA, R-Raman, ABS, FL, XAS/XES, NRVS
   Peter Pinski           : DLPNO-MP2, DLPNO-MP2 Gradient
   Christoph Reimann      : Effective Core Potentials
   Marius Retegan         : Local ZFS, SOC
   Christoph Riplinger    : Optimizer, TS searches, QM/MM, DLPNO-CCSD(T), (RO)-DLPNO pert. Triples
   Tobias Risthaus        : Range-separated hybrids, TD-DFT gradient, RPA, STAB
   Michael Roemelt        : Original ROCIS implementation
   Masaaki Saitow         : Open-shell DLPNO-CCSD energy and density
   Barbara Sandhoefer     : DKH picture change effects
   Avijit Sen             : IP-ROCIS
   Kantharuban Sivalingam : CASSCF convergence, NEVPT2, FIC-MRCI
   Bernardo de Souza      : ESD, SOC TD-DFT
   Georgi Stoychev        : AutoAux, RI-MP2 NMR
   Willem Van den Heuvel  : Paramagnetic NMR
   Boris Wezisla          : Elementary symmetry handling
   Frank Wennmohs         : Technical directorship


 We gratefully acknowledge several colleagues who have allowed us to
 interface, adapt or use parts of their codes:
   Stefan Grimme, W. Hujo, H. Kruse,             : VdW corrections, initial TS optimization,
                  C. Bannwarth                     DFT functionals, gCP, sTDA/sTD-DF
   Ed Valeev, F. Pavosevic, A. Kumar             : LibInt (2-el integral package), F12 methods
   Garnet Chan, S. Sharma, J. Yang, R. Olivares  : DMRG
   Ulf Ekstrom                                   : XCFun DFT Library
   Mihaly Kallay                                 : mrcc  (arbitrary order and MRCC methods)
   Andreas Klamt, Michael Diedenhofen            : otool_cosmo (COSMO solvation model)
   Jiri Pittner, Ondrej Demel                    : Mk-CCSD
   Frank Weinhold                                : gennbo (NPA and NBO analysis)
   Christopher J. Cramer and Donald G. Truhlar   : smd solvation model
   Lars Goerigk                                  : TD-DFT with DH, B97 family of functionals
   V. Asgeirsson, H. Jonsson                     : NEB implementation
   FAccTs GmbH                                   : IRC, NEB, NEB-TS, Multilevel, MM, QM/MM, CI optimization
   S Lehtola, MJT Oliveira, MAL Marques          : LibXC Library


 Your calculation uses the libint2 library for the computation of 2-el integrals
 For citations please refer to: http://libint.valeyev.net

 Your ORCA version has been built with support for libXC version: 4.2.3
 For citations please refer to: https://tddft.org/programs/libxc/

 This ORCA versions uses:
   CBLAS   interface :  Fast vector & matrix operations
   LAPACKE interface :  Fast linear algebra routines
   SCALAPACK package :  Parallel linear algebra routines




***************************************
The coordinates will be read from file: ammonia_B3LYP_cc-pVDZ_OPT.xyz
***************************************


----- Orbital basis set information -----
Your calculation utilizes the basis: cc-pVTZ 
       H, B-Ne : Obtained from the ccRepo (grant-hill.group.shef.ac.uk/ccrepo) Feb. 2017
                 T. H. Dunning, Jr., J. Chem. Phys. 90, 1007 (1989)
            He : Obtained from the ccRepo (grant-hill.group.shef.ac.uk/ccrepo) Feb. 2017
                 D. E. Woon, T. H. Dunning, Jr., J. Chem. Phys. 100, 2975 (1994)
  Li-Be, Na-Mg : Obtained from the ccRepo (grant-hill.group.shef.ac.uk/ccrepo) Feb. 2017
                 B. P. Prascher, D. E. Woon, K. A. Peterson, T. H. Dunning, Jr., A. K. Wilson, Theor. Chem. Acc. 128, 69 (2011)
         Al-Ar : Obtained from the ccRepo (grant-hill.group.shef.ac.uk/ccrepo) Feb. 2017
                 D. E. Woon, T. H. Dunning, Jr., J. Chem. Phys. 98, 1358 (1993)
            Ca : Obtained from the Peterson Research Group Website (tyr0.chem.wsu.edu/~kipeters) Feb. 2017
                 J. Koput, K. A. Peterson, J. Phys. Chem. 106, 9595 (2002)
         Sc-Zn : Obtained from the ccRepo (grant-hill.group.shef.ac.uk/ccrepo) Feb. 2017
                 N. B. Balabanov, K. A. Peterson, J. Chem. Phys. 123, 064107 (2005)
                 N. B. Balabanov, K. A. Peterson, J. Chem. Phys. 125, 074110 (2006)
         Ga-Kr : Obtained from the ccRepo (grant-hill.group.shef.ac.uk/ccrepo) Feb. 2017
                 A. K. Wilson, D. E. Woon, K. A. Peterson, T. H. Dunning, Jr., J. Chem. Phys. 110, 7667 (1999)
             Y : Obtained from the ccRepo (grant-hill.group.shef.ac.uk/ccrepo) Feb. 2017
                 K. A. Peterson, D. Figgen, M. Dolg, H. Stoll, J. Chem. Phys. 126, 124101 (2007)
        Ag, Au : Obtained from the Peterson Research Group Website (tyr0.chem.wsu.edu/~kipeters) Feb. 2017
                 K. A. Peterson, C. Puzzarini, Theor. Chem. Acc. 114, 283 (2005)

================================================================================
                                        WARNINGS
                       Please study these warnings very carefully!
================================================================================


WARNING: Geometry Optimization
  ===> : Switching off AutoStart
         For restart on a previous wavefunction, please use MOREAD

INFO   : the flag for use of LIBINT has been found!

================================================================================
                                       INPUT FILE
================================================================================
NAME = ammonia_B3LYP_cc-pVTZ_OPT.inp
|  1> # Ammonia geom opt with B3LYP/cc-pVTZ
|  2> 
|  3> ! B3LYP cc-pVTZ Opt PAL4
|  4> 
|  5> *xyzfile 0 1 ammonia_B3LYP_cc-pVDZ_OPT.xyz
|  6> 
|  7>                          ****END OF INPUT****
================================================================================

                       *****************************
                       * Geometry Optimization Run *
                       *****************************

Geometry optimization settings:
Update method            Update   .... BFGS
Choice of coordinates    CoordSys .... Z-matrix Internals
Initial Hessian          InHess   .... Almoef's Model

Convergence Tolerances:
Energy Change            TolE     ....  5.0000e-06 Eh
Max. Gradient            TolMAXG  ....  3.0000e-04 Eh/bohr
RMS Gradient             TolRMSG  ....  1.0000e-04 Eh/bohr
Max. Displacement        TolMAXD  ....  4.0000e-03 bohr
RMS Displacement         TolRMSD  ....  2.0000e-03 bohr
Strict Convergence                ....  False
------------------------------------------------------------------------------
                        ORCA OPTIMIZATION COORDINATE SETUP
------------------------------------------------------------------------------

The optimization will be done in new redundant internal coordinates
Making redundant internal coordinates   ...  (new redundants) done
Evaluating the initial hessian          ...  (Almloef) done
Evaluating the coordinates              ...  done
Calculating the B-matrix                .... done
Calculating the G-matrix                .... done
Diagonalizing the G-matrix              .... done
The first mode is                       ....    1
The number of degrees of freedom        ....    6

    -----------------------------------------------------------------
                    Redundant Internal Coordinates


    -----------------------------------------------------------------
         Definition                    Initial Value    Approx d2E/dq
    -----------------------------------------------------------------
      1. B(H   1,N   0)                  1.0252         0.409244   
      2. B(H   2,N   0)                  1.0250         0.409439   
      3. B(H   3,N   0)                  1.0253         0.409058   
      4. A(H   1,N   0,H   3)          104.2874         0.297896   
      5. A(H   2,N   0,H   3)          104.3013         0.297919   
      6. A(H   1,N   0,H   2)          104.2380         0.297940   
      7. I(H   1,H   3,H   2,N   0)    -66.3267         0.003087   
    -----------------------------------------------------------------

Number of atoms                         .... 4
Number of degrees of freedom            .... 7

         *************************************************************
         *                GEOMETRY OPTIMIZATION CYCLE   1            *
         *************************************************************
---------------------------------
CARTESIAN COORDINATES (ANGSTROEM)
---------------------------------
  N     -0.020074   -0.028491    0.049486
  H     -0.320431   -0.452694   -0.834157
  H     -0.320465    0.948715   -0.025037
  H      1.001640    0.014249   -0.024763

----------------------------
CARTESIAN COORDINATES (A.U.)
----------------------------
  NO LB      ZA    FRAG     MASS         X           Y           Z
   0 N     7.0000    0    14.007   -0.037935   -0.053840    0.093515
   1 H     1.0000    0     1.008   -0.605527   -0.855467   -1.576327
   2 H     1.0000    0     1.008   -0.605591    1.792812   -0.047313
   3 H     1.0000    0     1.008    1.892826    0.026928   -0.046795

--------------------------------
INTERNAL COORDINATES (ANGSTROEM)
--------------------------------
 N      0   0   0     0.000000000000     0.00000000     0.00000000
 H      1   0   0     1.025176454094     0.00000000     0.00000000
 H      1   2   0     1.025046458826   104.23796137     0.00000000
 H      1   2   3     1.025299941578   104.28739653   250.87667867

---------------------------
INTERNAL COORDINATES (A.U.)
---------------------------
 N      0   0   0     0.000000000000     0.00000000     0.00000000
 H      1   0   0     1.937302737182     0.00000000     0.00000000
 H      1   2   0     1.937057081728   104.23796137     0.00000000
 H      1   2   3     1.937536094709   104.28739653   250.87667867

---------------------
BASIS SET INFORMATION
---------------------
There are 2 groups of distinct atoms

 Group   1 Type N   : 18s5p2d1f contracted to 4s3p2d1f pattern {8811/311/11/1}
 Group   2 Type H   : 5s2p1d contracted to 3s2p1d pattern {311/11/1}

Atom   0N    basis set group =>   1
Atom   1H    basis set group =>   2
Atom   2H    basis set group =>   2
Atom   3H    basis set group =>   2


           ************************************************************
           *        Program running with 4 parallel MPI-processes     *
           *              working on a common directory               *
           ************************************************************
------------------------------------------------------------------------------
                           ORCA GTO INTEGRAL CALCULATION
------------------------------------------------------------------------------

                         BASIS SET STATISTICS AND STARTUP INFO

 # of primitive gaussian shells          ...   50
 # of primitive gaussian functions       ...   98
 # of contracted shells                  ...   28
 # of contracted basis functions         ...   72
 Highest angular momentum                ...    3
 Maximum contraction depth               ...    8
 Integral package used                   ... LIBINT
 Integral threshhold            Thresh   ...  2.500e-11
 Primitive cut-off              TCut     ...  2.500e-12


------------------------------ INTEGRAL EVALUATION ----------------------------


 * One electron integrals 
 Pre-screening matrix                    ... done
 Shell pair data                         ... done (   0.000 sec)



           ************************************************************
           *        Program running with 4 parallel MPI-processes     *
           *              working on a common directory               *
           ************************************************************
-------------------------------------------------------------------------------
                                 ORCA SCF
-------------------------------------------------------------------------------

------------
SCF SETTINGS
------------
Hamiltonian:
 Density Functional     Method          .... DFT(GTOs)
 Exchange Functional    Exchange        .... B88
   X-Alpha parameter    XAlpha          ....  0.666667
   Becke's b parameter  XBeta           ....  0.004200
 Correlation Functional Correlation     .... LYP
 LDA part of GGA corr.  LDAOpt          .... VWN-5
 Gradients option       PostSCFGGA      .... off
 Hybrid DFT is turned on
   Fraction HF Exchange ScalHFX         ....  0.200000
   Scaling of DF-GGA-X  ScalDFX         ....  0.720000
   Scaling of DF-GGA-C  ScalDFC         ....  0.810000
   Scaling of DF-LDA-C  ScalLDAC        ....  1.000000
   Perturbative correction              ....  0.000000
   Density functional embedding theory  .... OFF
   NL short-range parameter             ....  4.800000


General Settings:
 Integral files         IntName         .... ammonia_B3LYP_cc-pVTZ_OPT
 Hartree-Fock type      HFTyp           .... RHF
 Total Charge           Charge          ....    0
 Multiplicity           Mult            ....    1
 Number of Electrons    NEL             ....   10
 Basis Dimension        Dim             ....   72
 Nuclear Repulsion      ENuc            ....     11.8205645798 Eh

Convergence Acceleration:
 DIIS                   CNVDIIS         .... on
   Start iteration      DIISMaxIt       ....    12
   Startup error        DIISStart       ....  0.200000
   # of expansion vecs  DIISMaxEq       ....     5
   Bias factor          DIISBfac        ....   1.050
   Max. coefficient     DIISMaxC        ....  10.000
 Newton-Raphson         CNVNR           .... off
 SOSCF                  CNVSOSCF        .... on
   Start iteration      SOSCFMaxIt      ....   150
   Startup grad/error   SOSCFStart      ....  0.003300
 Level Shifting         CNVShift        .... on
   Level shift para.    LevelShift      ....    0.2500
   Turn off err/grad.   ShiftErr        ....    0.0010
 Zerner damping         CNVZerner       .... off
 Static damping         CNVDamp         .... on
   Fraction old density DampFac         ....    0.7000
   Max. Damping (<1)    DampMax         ....    0.9800
   Min. Damping (>=0)   DampMin         ....    0.0000
   Turn off err/grad.   DampErr         ....    0.1000
 Fernandez-Rico         CNVRico         .... off

SCF Procedure:
 Maximum # iterations   MaxIter         ....   125
 SCF integral mode      SCFMode         .... Direct
   Integral package                     .... LIBINT
 Reset frequency        DirectResetFreq ....    20
 Integral Threshold     Thresh          ....  2.500e-11 Eh
 Primitive CutOff       TCut            ....  2.500e-12 Eh

Convergence Tolerance:
 Convergence Check Mode ConvCheckMode   .... Total+1el-Energy
 Convergence forced     ConvForced      .... 0
 Energy Change          TolE            ....  1.000e-08 Eh
 1-El. energy change                    ....  1.000e-05 Eh
 Orbital Gradient       TolG            ....  1.000e-05
 Orbital Rotation angle TolX            ....  1.000e-05
 DIIS Error             TolErr          ....  5.000e-07


Diagonalization of the overlap matrix:
Smallest eigenvalue                        ... 1.752e-03
Time for diagonalization                   ...    0.001 sec
Threshold for overlap eigenvalues          ... 1.000e-08
Number of eigenvalues below threshold      ... 0
Time for construction of square roots      ...    0.000 sec
Total time needed                          ...    0.001 sec

-------------------
DFT GRID GENERATION
-------------------

General Integration Accuracy     IntAcc      ...  4.340
Radial Grid Type                 RadialGrid  ... Gauss-Chebyshev
Angular Grid (max. acc.)         AngularGrid ... Lebedev-110
Angular grid pruning method      GridPruning ... 3 (G Style)
Weight generation scheme         WeightScheme... Becke
Basis function cutoff            BFCut       ...    1.0000e-11
Integration weight cutoff        WCut        ...    1.0000e-14
Grids for H and He will be reduced by one unit

# of grid points (after initial pruning)     ...   4084 (   0.0 sec)
# of grid points (after weights+screening)   ...   4022 (   0.0 sec)
nearest neighbour list constructed           ...    0.0 sec
Grid point re-assignment to atoms done       ...    0.0 sec
Grid point division into batches done        ...    0.0 sec
Reduced shell lists constructed in    0.0 sec

Total number of grid points                  ...     4022
Total number of batches                      ...       65
Average number of points per batch           ...       61
Average number of grid points per atom       ...     1006
Average number of shells per batch           ...    25.39 (90.67%)
Average number of basis functions per batch  ...    64.94 (90.20%)
Average number of large shells per batch     ...    23.94 (94.31%)
Average number of large basis fcns per batch ...    61.06 (94.01%)
Maximum spatial batch extension              ...  16.83, 17.06, 16.40 au
Average spatial batch extension              ...   1.10,  1.15,  1.12 au

Time for grid setup =    0.005 sec

------------------------------
INITIAL GUESS: MODEL POTENTIAL
------------------------------
Loading Hartree-Fock densities                     ... done
Calculating cut-offs                               ... done
Setting up the integral package                    ... done
Initializing the effective Hamiltonian             ... done
Starting the Coulomb interaction                   ... done (   0.0 sec)
Reading the grid                                   ... done
Mapping shells                                     ... done
Starting the XC term evaluation                    ... done (   0.0 sec)
  promolecular density results
     # of electrons  =     10.000177868
     EX              =     -7.443406399
     EC              =     -0.311214600
     EX+EC           =     -7.754620999
Transforming the Hamiltonian                       ... done (   0.0 sec)
Diagonalizing the Hamiltonian                      ... done (   0.0 sec)
Back transforming the eigenvectors                 ... done (   0.0 sec)
Now organizing SCF variables                       ... done
                      ------------------
                      INITIAL GUESS DONE (   0.1 sec)
                      ------------------
--------------
SCF ITERATIONS
--------------
ITER       Energy         Delta-E        Max-DP      RMS-DP      [F,P]     Damp
               ***  Starting incremental Fock matrix formation  ***
  0    -56.4225431172   0.000000000000 0.05811864  0.00228872  0.3624406 0.7000
  1    -56.4854211449  -0.062878027778 0.03749316  0.00148056  0.1542796 0.7000
                               ***Turning on DIIS***
  2    -56.5060228930  -0.020601748055 0.03583914  0.00187521  0.0353717 0.0000
  3    -56.5383373257  -0.032314432723 0.02713007  0.00095822  0.0959967 0.0000
  4    -56.5470477713  -0.008710445615 0.00786316  0.00030761  0.0217176 0.0000
  5    -56.5475544675  -0.000506696207 0.00183370  0.00008925  0.0043183 0.0000
                      *** Initiating the SOSCF procedure ***
                           *** Shutting down DIIS ***
                      *** Re-Reading the Fockian *** 
                      *** Removing any level shift *** 
ITER      Energy       Delta-E        Grad      Rot      Max-DP    RMS-DP
  6    -56.54757841  -0.0000239376  0.000272  0.000272  0.000632  0.000039
               *** Restarting incremental Fock matrix formation ***
  7    -56.54757984  -0.0000014336  0.000062  0.000095  0.000172  0.000007
  8    -56.54757981   0.0000000288  0.000099  0.000058  0.000073  0.000003
                  ***Gradient check signals convergence***
              ***Rediagonalizing the Fockian in SOSCF/NRSCF***

               *****************************************************
               *                     SUCCESS                       *
               *           SCF CONVERGED AFTER   9 CYCLES          *
               *****************************************************

Setting up the final grid:

General Integration Accuracy     IntAcc      ...  4.670
Radial Grid Type                 RadialGrid  ... Gauss-Chebyshev
Angular Grid (max. acc.)         AngularGrid ... Lebedev-302
Angular grid pruning method      GridPruning ... 3 (G Style)
Weight generation scheme         WeightScheme... Becke
Basis function cutoff            BFCut       ...    1.0000e-11
Integration weight cutoff        WCut        ...    1.0000e-14
Grids for H and He will be reduced by one unit

# of grid points (after initial pruning)     ...  16394 (   0.0 sec)
# of grid points (after weights+screening)   ...  16118 (   0.0 sec)
nearest neighbour list constructed           ...    0.0 sec
Grid point re-assignment to atoms done       ...    0.0 sec
Grid point division into batches done        ...    0.0 sec
Reduced shell lists constructed in    0.0 sec

Total number of grid points                  ...    16118
Total number of batches                      ...      253
Average number of points per batch           ...       63
Average number of grid points per atom       ...     4030
Average number of shells per batch           ...    23.55 (84.12%)
Average number of basis functions per batch  ...    59.68 (82.88%)
Average number of large shells per batch     ...    22.80 (96.80%)
Average number of large basis fcns per batch ...    57.75 (96.78%)
Maximum spatial batch extension              ...  15.73, 13.48, 14.89 au
Average spatial batch extension              ...   0.82,  0.75,  0.76 au

Final grid set up in    0.0 sec
Final integration                            ... done (   0.0 sec)
Change in XC energy                          ...    -0.000207938
Integrated number of electrons               ...     9.999975965
Previous integrated no of electrons          ...    10.000925262

----------------
TOTAL SCF ENERGY
----------------

Total Energy       :          -56.54778782 Eh           -1538.74353 eV

Components:
Nuclear Repulsion  :           11.82056458 Eh             321.65391 eV
Electronic Energy  :          -68.36835240 Eh           -1860.39745 eV
One Electron Energy:          -99.49131064 Eh           -2707.29620 eV
Two Electron Energy:           31.12295824 Eh             846.89875 eV

Virial components:
Potential Energy   :         -112.74223171 Eh           -3067.87209 eV
Kinetic Energy     :           56.19444390 Eh            1529.12856 eV
Virial Ratio       :            2.00628788


DFT components:
N(Alpha)           :        4.999987982384 electrons
N(Beta)            :        4.999987982384 electrons
N(Total)           :        9.999975964769 electrons
E(X)               :       -6.081221669619 Eh       
E(C)               :       -0.376393943028 Eh       
E(XC)              :       -6.457615612647 Eh       
DFET-embed. en.    :        0.000000000000 Eh       

---------------
SCF CONVERGENCE
---------------

  Last Energy change         ...   -6.9039e-08  Tolerance :   1.0000e-08
  Last MAX-Density change    ...    8.7477e-06  Tolerance :   1.0000e-07
  Last RMS-Density change    ...    3.1636e-07  Tolerance :   5.0000e-09
  Last Orbital Gradient      ...    2.3021e-06  Tolerance :   1.0000e-05
  Last Orbital Rotation      ...    7.9196e-06  Tolerance :   1.0000e-05

             **** THE GBW FILE WAS UPDATED (ammonia_B3LYP_cc-pVTZ_OPT.gbw) ****
             **** DENSITY FILE WAS UPDATED (ammonia_B3LYP_cc-pVTZ_OPT.scfp) ****
             **** ENERGY FILE WAS UPDATED (ammonia_B3LYP_cc-pVTZ_OPT.en.tmp) ****
             **** THE GBW FILE WAS UPDATED (ammonia_B3LYP_cc-pVTZ_OPT.gbw) ****
             **** DENSITY FILE WAS UPDATED (ammonia_B3LYP_cc-pVTZ_OPT.scfp) ****
----------------
ORBITAL ENERGIES
----------------

  NO   OCC          E(Eh)            E(eV) 
   0   2.0000     -14.291198      -388.8833 
   1   2.0000      -0.846499       -23.0344 
   2   2.0000      -0.450183       -12.2501 
   3   2.0000      -0.450009       -12.2454 
   4   2.0000      -0.268229        -7.2989 
   5   0.0000       0.029581         0.8049 
   6   0.0000       0.110247         3.0000 
   7   0.0000       0.111815         3.0426 
   8   0.0000       0.318307         8.6616 
   9   0.0000       0.321120         8.7381 
  10   0.0000       0.419394        11.4123 
  11   0.0000       0.460455        12.5296 
  12   0.0000       0.527986        14.3672 
  13   0.0000       0.531276        14.4567 
  14   0.0000       0.567978        15.4555 
  15   0.0000       0.568249        15.4628 
  16   0.0000       0.621620        16.9151 
  17   0.0000       0.929079        25.2815 
  18   0.0000       0.933634        25.4055 
  19   0.0000       1.018290        27.7091 
  20   0.0000       1.019502        27.7421 
  21   0.0000       1.211873        32.9767 
  22   0.0000       1.213014        33.0078 
  23   0.0000       1.362004        37.0620 
  24   0.0000       1.524584        41.4861 
  25   0.0000       1.526230        41.5308 
  26   0.0000       1.540547        41.9204 
  27   0.0000       1.542015        41.9604 
  28   0.0000       1.608296        43.7640 
  29   0.0000       2.275669        61.9241 
  30   0.0000       2.276616        61.9499 
  31   0.0000       2.371879        64.5421 
  32   0.0000       2.971358        80.8548 
  33   0.0000       3.135048        85.3090 
  34   0.0000       3.136833        85.3576 
  35   0.0000       3.148481        85.6745 
  36   0.0000       3.208797        87.3158 
  37   0.0000       3.247241        88.3619 
  38   0.0000       3.247759        88.3760 
  39   0.0000       3.410558        92.8060 
  40   0.0000       3.417633        92.9985 
  41   0.0000       3.418801        93.0303 
  42   0.0000       3.442415        93.6729 
  43   0.0000       3.443117        93.6920 
  44   0.0000       3.632911        98.8565 
  45   0.0000       3.636748        98.9609 
  46   0.0000       3.637176        98.9726 
  47   0.0000       3.801984       103.4572 
  48   0.0000       3.869145       105.2848 
  49   0.0000       3.871362       105.3451 
  50   0.0000       4.067225       110.6748 
  51   0.0000       4.068358       110.7057 
  52   0.0000       4.176057       113.6363 
  53   0.0000       4.176248       113.6415 
  54   0.0000       4.305873       117.1688 
  55   0.0000       4.362576       118.7117 
  56   0.0000       4.696481       127.7977 
  57   0.0000       4.847625       131.9106 
  58   0.0000       4.850291       131.9831 
  59   0.0000       4.859220       132.2261 
  60   0.0000       5.281401       143.7142 
  61   0.0000       5.282371       143.7406 
  62   0.0000       5.413796       147.3169 
  63   0.0000       5.779779       157.2758 
  64   0.0000       5.781547       157.3239 
  65   0.0000       5.814082       158.2092 
  66   0.0000       5.821338       158.4067 
  67   0.0000       5.925706       161.2467 
  68   0.0000       5.928771       161.3301 
  69   0.0000       6.794842       184.8970 
  70   0.0000       6.795472       184.9142 
  71   0.0000      12.928837       351.8116 

                    ********************************
                    * MULLIKEN POPULATION ANALYSIS *
                    ********************************

-----------------------
MULLIKEN ATOMIC CHARGES
-----------------------
   0 N :   -0.459810
   1 H :    0.154776
   2 H :    0.151076
   3 H :    0.153958
Sum of atomic charges:    0.0000000

--------------------------------
MULLIKEN REDUCED ORBITAL CHARGES
--------------------------------
  0 N s       :     3.550285  s :     3.550285
      pz      :     1.517151  p :     3.888672
      px      :     1.145743
      py      :     1.225777
      dz2     :     0.007795  d :     0.020357
      dxz     :     0.002193
      dyz     :     0.003151
      dx2y2   :     0.006674
      dxy     :     0.000543
      f0      :    -0.000065  f :     0.000496
      f+1     :     0.000146
      f-1     :     0.000268
      f+2     :    -0.000023
      f-2     :     0.000017
      f+3     :     0.000190
      f-3     :    -0.000037
  1 H s       :     0.783685  s :     0.783685
      pz      :     0.029557  p :     0.057232
      px      :     0.014205
      py      :     0.013470
      dz2     :     0.001894  d :     0.004307
      dxz     :     0.000807
      dyz     :     0.000973
      dx2y2   :     0.000384
      dxy     :     0.000249
  2 H s       :     0.787451  s :     0.787451
      pz      :     0.020285  p :     0.057094
      px      :     0.014245
      py      :     0.022565
      dz2     :     0.000388  d :     0.004379
      dxz     :     0.000116
      dyz     :     0.001400
      dx2y2   :     0.001495
      dxy     :     0.000981
  3 H s       :     0.784383  s :     0.784383
      pz      :     0.020949  p :     0.057181
      px      :     0.018693
      py      :     0.017540
      dz2     :     0.000419  d :     0.004477
      dxz     :     0.001581
      dyz     :     0.000009
      dx2y2   :     0.001178
      dxy     :     0.001290


                     *******************************
                     * LOEWDIN POPULATION ANALYSIS *
                     *******************************

----------------------
LOEWDIN ATOMIC CHARGES
----------------------
   0 N :    0.289539
   1 H :   -0.096440
   2 H :   -0.096453
   3 H :   -0.096646

-------------------------------
LOEWDIN REDUCED ORBITAL CHARGES
-------------------------------
  0 N s       :     2.922926  s :     2.922926
      pz      :     1.363580  p :     3.694808
      px      :     1.143123
      py      :     1.188105
      dz2     :     0.023440  d :     0.084429
      dxz     :     0.005619
      dyz     :     0.010891
      dx2y2   :     0.035811
      dxy     :     0.008669
      f0      :     0.000949  f :     0.008298
      f+1     :     0.001427
      f-1     :     0.001512
      f+2     :     0.000432
      f-2     :     0.000620
      f+3     :     0.002277
      f-3     :     0.001082
  1 H s       :     0.777476  s :     0.777476
      pz      :     0.129498  p :     0.262135
      px      :     0.062571
      py      :     0.070067
      dz2     :     0.021925  d :     0.056830
      dxz     :     0.011912
      dyz     :     0.012871
      dx2y2   :     0.005227
      dxy     :     0.004893
  2 H s       :     0.777721  s :     0.777721
      pz      :     0.085236  p :     0.261875
      px      :     0.062616
      py      :     0.114023
      dz2     :     0.004479  d :     0.056857
      dxz     :     0.001694
      dyz     :     0.019214
      dx2y2   :     0.016341
      dxy     :     0.015130
  3 H s       :     0.777720  s :     0.777720
      pz      :     0.085521  p :     0.262216
      px      :     0.111392
      py      :     0.065303
      dz2     :     0.004484  d :     0.056710
      dxz     :     0.020786
      dyz     :     0.000079
      dx2y2   :     0.013624
      dxy     :     0.017736


                      *****************************
                      * MAYER POPULATION ANALYSIS *
                      *****************************

  NA   - Mulliken gross atomic population
  ZA   - Total nuclear charge
  QA   - Mulliken gross atomic charge
  VA   - Mayer's total valence
  BVA  - Mayer's bonded valence
  FA   - Mayer's free valence

  ATOM       NA         ZA         QA         VA         BVA        FA
  0 N      7.4598     7.0000    -0.4598     2.9743     2.9743     0.0000
  1 H      0.8452     1.0000     0.1548     1.0085     1.0085     0.0000
  2 H      0.8489     1.0000     0.1511     1.0096     1.0096     0.0000
  3 H      0.8460     1.0000     0.1540     1.0090     1.0090     0.0000

  Mayer bond orders larger than 0.100000
B(  0-N ,  1-H ) :   0.9909 B(  0-N ,  2-H ) :   0.9921 B(  0-N ,  3-H ) :   0.9912 


-------
TIMINGS
-------

Total SCF time: 0 days 0 hours 0 min 1 sec 

Total time                  ....       1.600 sec
Sum of individual times     ....       1.449 sec  ( 90.6%)

Fock matrix formation       ....       1.319 sec  ( 82.4%)
  XC integration            ....       0.065 sec  (  4.9% of F)
    Basis function eval.    ....       0.019 sec  ( 29.2% of XC)
    Density eval.           ....       0.010 sec  ( 15.3% of XC)
    XC-Functional eval.     ....       0.006 sec  (  9.7% of XC)
    XC-Potential eval.      ....       0.019 sec  ( 29.0% of XC)
Diagonalization             ....       0.004 sec  (  0.3%)
Density matrix formation    ....       0.000 sec  (  0.0%)
Population analysis         ....       0.001 sec  (  0.1%)
Initial guess               ....       0.072 sec  (  4.5%)
Orbital Transformation      ....       0.000 sec  (  0.0%)
Orbital Orthonormalization  ....       0.000 sec  (  0.0%)
DIIS solution               ....       0.001 sec  (  0.1%)
SOSCF solution              ....       0.001 sec  (  0.0%)
Grid generation             ....       0.051 sec  (  3.2%)

-------------------------   --------------------
FINAL SINGLE POINT ENERGY       -56.547787817453
-------------------------   --------------------



           ************************************************************
           *        Program running with 4 parallel MPI-processes     *
           *              working on a common directory               *
           ************************************************************
------------------------------------------------------------------------------
                         ORCA SCF GRADIENT CALCULATION
------------------------------------------------------------------------------

Gradient of the Kohn-Sham DFT energy:
Kohn-Sham wavefunction type      ... RKS
Hartree-Fock exchange scaling    ...    0.200
Number of operators              ...    1
Number of atoms                  ...    4
Basis set dimensions             ...   72
Integral neglect threshold       ... 2.5e-11
Integral primitive cutoff        ... 2.5e-12

Nuclear repulsion gradient       ... done
One Electron Gradient            ... done
Pre-screening matrix             ... done
Starting the two electron gradient:
Two electron gradient done
Exchange-correlation gradient    ... done

------------------
CARTESIAN GRADIENT
------------------

   1   N   :   -0.004588550   -0.006463257    0.011271005
   2   H   :   -0.000969437   -0.001375101   -0.006646439
   3   H   :   -0.000955826    0.006550238   -0.002325252
   4   H   :    0.006513813    0.001288120   -0.002299314

Difference to translation invariance:
           :   -0.0000000000   -0.0000000000   -0.0000000000

Norm of the cartesian gradient     ...    0.0183158884
RMS gradient                       ...    0.0052873416
MAX gradient                       ...    0.0112710047

-------
TIMINGS
-------

Total SCF gradient time            ...        0.406 sec

One electron gradient       ....       0.008 sec  (  1.9%)
Prescreening matrices       ....       0.024 sec  (  6.0%)
Two electron gradient       ....       0.183 sec  ( 45.1%)
XC gradient                 ....       0.053 sec  ( 13.1%)
------------------------------------------------------------------------------
                         ORCA GEOMETRY RELAXATION STEP
------------------------------------------------------------------------------

Reading the OPT-File                    .... done
Getting information on internals        .... done
Copying old internal coords+grads       .... done
Making the new internal coordinates     .... (new redundants).... done
Validating the new internal coordinates .... (new redundants).... done
Calculating the B-matrix                .... done
Calculating the G,G- and P matrices     .... done
Transforming gradient to internals      .... done
Projecting the internal gradient        .... done
Number of atoms                         ....   4
Number of internal coordinates          ....   7
Current Energy                          ....   -56.547787817 Eh
Current gradient norm                   ....     0.018315888 Eh/bohr
Maximum allowed component of the step   ....  0.300
Current trust radius                    ....  0.300
Evaluating the initial hessian          ....  (Almloef) done
Projecting the Hessian                  .... done
Forming the augmented Hessian           .... done
Diagonalizing the augmented Hessian     .... done
Last element of RFO vector              ....  0.999162177
Lowest eigenvalues of augmented Hessian:
 -0.000439314  0.118048852  0.297916706  0.297935744  0.409109406
Length of the computed step             ....  0.040960405
The final length of the internal step   ....  0.040960405
Converting the step to cartesian space:
 Initial RMS(Int)=    0.0154815780
Transforming coordinates:
 Iter   0:  RMS(Cart)=    0.0069260604 RMS(Int)=    0.0155039460
 Iter   1:  RMS(Cart)=    0.0000737468 RMS(Int)=    0.0001075729
 Iter   2:  RMS(Cart)=    0.0000007069 RMS(Int)=    0.0000009976
 Iter   3:  RMS(Cart)=    0.0000000081 RMS(Int)=    0.0000000110
done
Storing new coordinates                 .... done

                                .--------------------.
          ----------------------|Geometry convergence|-------------------------
          Item                value                   Tolerance       Converged
          ---------------------------------------------------------------------
          RMS gradient        0.0046221323            0.0001000000      NO
          MAX gradient        0.0066936019            0.0003000000      NO
          RMS step            0.0154815780            0.0020000000      NO
          MAX step            0.0225242645            0.0040000000      NO
          ........................................................
          Max(Bonds)      0.0086      Max(Angles)    0.64
          Max(Dihed)        0.00      Max(Improp)    1.29
          ---------------------------------------------------------------------

The optimization has not yet converged - more geometry cycles are needed


    ---------------------------------------------------------------------------
                         Redundant Internal Coordinates
                            (Angstroem and degrees)

        Definition                    Value    dE/dq     Step     New-Value
    ----------------------------------------------------------------------------
     1. B(H   1,N   0)                1.0252  0.006623 -0.0086    1.0166   
     2. B(H   2,N   0)                1.0250  0.006670 -0.0086    1.0164   
     3. B(H   3,N   0)                1.0253  0.006694 -0.0086    1.0167   
     4. A(H   1,N   0,H   3)          104.29 -0.001115    0.64    104.93   
     5. A(H   2,N   0,H   3)          104.30 -0.002601    0.64    104.94   
     6. A(H   1,N   0,H   2)          104.24 -0.001127    0.64    104.88   
     7. I(H   1,H   3,H   2,N   0)    -66.33 -0.002667    1.29    -65.04   
    ----------------------------------------------------------------------------

         *************************************************************
         *                GEOMETRY OPTIMIZATION CYCLE   2            *
         *************************************************************
---------------------------------
CARTESIAN COORDINATES (ANGSTROEM)
---------------------------------
  N     -0.016931   -0.024053    0.041827
  H     -0.319663   -0.451636   -0.829405
  H     -0.319674    0.944042   -0.023575
  H      0.996938    0.013428   -0.023317

----------------------------
CARTESIAN COORDINATES (A.U.)
----------------------------
  NO LB      ZA    FRAG     MASS         X           Y           Z
   0 N     7.0000    0    14.007   -0.031994   -0.045454    0.079041
   1 H     1.0000    0     1.008   -0.604076   -0.853468   -1.567349
   2 H     1.0000    0     1.008   -0.604096    1.783981   -0.044550
   3 H     1.0000    0     1.008    1.883939    0.025374   -0.044062

--------------------------------
INTERNAL COORDINATES (ANGSTROEM)
--------------------------------
 N      0   0   0     0.000000000000     0.00000000     0.00000000
 H      1   0   0     1.016621721427     0.00000000     0.00000000
 H      1   2   0     1.016434815583   104.87746300     0.00000000
 H      1   2   3     1.016650063504   104.92541369   249.70436149

---------------------------
INTERNAL COORDINATES (A.U.)
---------------------------
 N      0   0   0     0.000000000000     0.00000000     0.00000000
 H      1   0   0     1.921136635292     0.00000000     0.00000000
 H      1   2   0     1.920783434435   104.87746300     0.00000000
 H      1   2   3     1.921190194057   104.92541369   249.70436149



           ************************************************************
           *        Program running with 4 parallel MPI-processes     *
           *              working on a common directory               *
           ************************************************************


           ************************************************************
           *        Program running with 4 parallel MPI-processes     *
           *              working on a common directory               *
           ************************************************************

Diagonalization of the overlap matrix:
Smallest eigenvalue                        ... 1.731e-03
Time for diagonalization                   ...    0.001 sec
Threshold for overlap eigenvalues          ... 1.000e-08
Number of eigenvalues below threshold      ... 0
Time for construction of square roots      ...    0.001 sec
Total time needed                          ...    0.002 sec

-------------------
DFT GRID GENERATION
-------------------

General Integration Accuracy     IntAcc      ...  4.340
Radial Grid Type                 RadialGrid  ... Gauss-Chebyshev
Angular Grid (max. acc.)         AngularGrid ... Lebedev-110
Angular grid pruning method      GridPruning ... 3 (G Style)
Weight generation scheme         WeightScheme... Becke
Basis function cutoff            BFCut       ...    1.0000e-11
Integration weight cutoff        WCut        ...    1.0000e-14
Grids for H and He will be reduced by one unit

# of grid points (after initial pruning)     ...   4084 (   0.0 sec)
# of grid points (after weights+screening)   ...   4023 (   0.0 sec)
nearest neighbour list constructed           ...    0.0 sec
Grid point re-assignment to atoms done       ...    0.0 sec
Grid point division into batches done        ...    0.0 sec
Reduced shell lists constructed in    0.0 sec

Total number of grid points                  ...     4023
Total number of batches                      ...       66
Average number of points per batch           ...       60
Average number of grid points per atom       ...     1006
Average number of shells per batch           ...    25.33 (90.48%)
Average number of basis functions per batch  ...    64.67 (89.81%)
Average number of large shells per batch     ...    24.17 (95.39%)
Average number of large basis fcns per batch ...    61.61 (95.27%)
Maximum spatial batch extension              ...  16.83, 17.07, 16.39 au
Average spatial batch extension              ...   1.07,  1.12,  1.11 au

Time for grid setup =    0.007 sec

--------------
SCF ITERATIONS
--------------
ITER       Energy         Delta-E        Max-DP      RMS-DP      [F,P]     Damp
               ***  Starting incremental Fock matrix formation  ***
                      *** Initiating the SOSCF procedure ***
                      *** Re-Reading the Fockian *** 
                      *** Removing any level shift *** 
ITER      Energy       Delta-E        Grad      Rot      Max-DP    RMS-DP
  0    -56.54779615 -56.5477961492  0.002815  0.002815  0.003120  0.000171
               *** Restarting incremental Fock matrix formation ***
  1    -56.54786820  -0.0000720514  0.000977  0.001418  0.003629  0.000136
  2    -56.54786559   0.0000026078  0.001520  0.000912  0.000943  0.000048
  3    -56.54788142  -0.0000158310  0.000049  0.000057  0.000145  0.000006
  4    -56.54788144  -0.0000000199  0.000013  0.000011  0.000008  0.000001
                 **** Energy Check signals convergence ****
              ***Rediagonalizing the Fockian in SOSCF/NRSCF***

               *****************************************************
               *                     SUCCESS                       *
               *           SCF CONVERGED AFTER   5 CYCLES          *
               *****************************************************

Setting up the final grid:

General Integration Accuracy     IntAcc      ...  4.670
Radial Grid Type                 RadialGrid  ... Gauss-Chebyshev
Angular Grid (max. acc.)         AngularGrid ... Lebedev-302
Angular grid pruning method      GridPruning ... 3 (G Style)
Weight generation scheme         WeightScheme... Becke
Basis function cutoff            BFCut       ...    1.0000e-11
Integration weight cutoff        WCut        ...    1.0000e-14
Grids for H and He will be reduced by one unit

# of grid points (after initial pruning)     ...  16394 (   0.0 sec)
# of grid points (after weights+screening)   ...  16120 (   0.0 sec)
nearest neighbour list constructed           ...    0.0 sec
Grid point re-assignment to atoms done       ...    0.0 sec
Grid point division into batches done        ...    0.0 sec
Reduced shell lists constructed in    0.0 sec

Total number of grid points                  ...    16120
Total number of batches                      ...      254
Average number of points per batch           ...       63
Average number of grid points per atom       ...     4030
Average number of shells per batch           ...    23.25 (83.02%)
Average number of basis functions per batch  ...    58.69 (81.52%)
Average number of large shells per batch     ...    22.49 (96.76%)
Average number of large basis fcns per batch ...    56.83 (96.83%)
Maximum spatial batch extension              ...  15.73, 16.59, 14.89 au
Average spatial batch extension              ...   0.85,  0.81,  0.80 au

Final grid set up in    0.0 sec
Final integration                            ... done (   0.0 sec)
Change in XC energy                          ...    -0.000187107
Integrated number of electrons               ...     9.999978593
Previous integrated no of electrons          ...    10.001148564
Total Energy       :          -56.54806855 Eh           -1538.75117 eV
  Last Energy change         ...   -2.3313e-09  Tolerance :   1.0000e-08
  Last MAX-Density change    ...    1.5882e-06  Tolerance :   1.0000e-07
             **** THE GBW FILE WAS UPDATED (ammonia_B3LYP_cc-pVTZ_OPT.gbw) ****
             **** DENSITY FILE WAS UPDATED (ammonia_B3LYP_cc-pVTZ_OPT.scfp) ****
             **** ENERGY FILE WAS UPDATED (ammonia_B3LYP_cc-pVTZ_OPT.en.tmp) ****
             **** THE GBW FILE WAS UPDATED (ammonia_B3LYP_cc-pVTZ_OPT.gbw) ****
             **** DENSITY FILE WAS UPDATED (ammonia_B3LYP_cc-pVTZ_OPT.scfp) ****
Total SCF time: 0 days 0 hours 0 min 0 sec 

-------------------------   --------------------
FINAL SINGLE POINT ENERGY       -56.548068553110
-------------------------   --------------------



           ************************************************************
           *        Program running with 4 parallel MPI-processes     *
           *              working on a common directory               *
           ************************************************************
------------------------------------------------------------------------------
                         ORCA SCF GRADIENT CALCULATION
------------------------------------------------------------------------------

Gradient of the Kohn-Sham DFT energy:
Kohn-Sham wavefunction type      ... RKS
Hartree-Fock exchange scaling    ...    0.200
Number of operators              ...    1
Number of atoms                  ...    4
Basis set dimensions             ...   72
Integral neglect threshold       ... 2.5e-11
Integral primitive cutoff        ... 2.5e-12

Nuclear repulsion gradient       ... done
One Electron Gradient            ... done
Pre-screening matrix             ... done
Starting the two electron gradient:
Two electron gradient done
Exchange-correlation gradient    ... done

------------------
CARTESIAN GRADIENT
------------------

   1   N   :   -0.001798205   -0.002516719    0.004492580
   2   H   :    0.000735748    0.001024974   -0.001179951
   3   H   :    0.000758195    0.000583412   -0.001671184
   4   H   :    0.000304261    0.000908333   -0.001641445

Difference to translation invariance:
           :    0.0000000000   -0.0000000000   -0.0000000000

Norm of the cartesian gradient     ...    0.0063288978
RMS gradient                       ...    0.0018269954
MAX gradient                       ...    0.0044925803

-------
TIMINGS
-------

Total SCF gradient time            ...        0.407 sec

One electron gradient       ....       0.009 sec  (  2.1%)
Prescreening matrices       ....       0.014 sec  (  3.4%)
Two electron gradient       ....       0.181 sec  ( 44.4%)
XC gradient                 ....       0.055 sec  ( 13.5%)
------------------------------------------------------------------------------
                         ORCA GEOMETRY RELAXATION STEP
------------------------------------------------------------------------------

Reading the OPT-File                    .... done
Getting information on internals        .... done
Copying old internal coords+grads       .... done
Making the new internal coordinates     .... (new redundants).... done
Validating the new internal coordinates .... (new redundants).... done
Calculating the B-matrix                .... done
Calculating the G,G- and P matrices     .... done
Transforming gradient to internals      .... done
Projecting the internal gradient        .... done
Number of atoms                         ....   4
Number of internal coordinates          ....   7
Current Energy                          ....   -56.548068553 Eh
Current gradient norm                   ....     0.006328898 Eh/bohr
Maximum allowed component of the step   ....  0.300
Current trust radius                    ....  0.300
Updating the Hessian (BFGS)             .... done
Forming the augmented Hessian           .... done
Diagonalizing the augmented Hessian     .... done
Last element of RFO vector              ....  0.999011039
Lowest eigenvalues of augmented Hessian:
 -0.000153963  0.074708050  0.281286732  0.297918105  0.409134792
Length of the computed step             ....  0.044506850
The final length of the internal step   ....  0.044506850
Converting the step to cartesian space:
 Initial RMS(Int)=    0.0168220081
Transforming coordinates:
 Iter   0:  RMS(Cart)=    0.0074088830 RMS(Int)=    0.0168235151
 Iter   1:  RMS(Cart)=    0.0000993193 RMS(Int)=    0.0001356666
 Iter   2:  RMS(Cart)=    0.0000010011 RMS(Int)=    0.0000018700
 Iter   3:  RMS(Cart)=    0.0000000229 RMS(Int)=    0.0000000312
done
Storing new coordinates                 .... done

                                .--------------------.
          ----------------------|Geometry convergence|-------------------------
          Item                value                   Tolerance       Converged
          ---------------------------------------------------------------------
          Energy change      -0.0002807357            0.0000050000      NO
          RMS gradient        0.0013731947            0.0001000000      NO
          MAX gradient        0.0023824088            0.0003000000      NO
          RMS step            0.0168220081            0.0020000000      NO
          MAX step            0.0330458248            0.0040000000      NO
          ........................................................
          Max(Bonds)      0.0029      Max(Angles)    0.94
          Max(Dihed)        0.00      Max(Improp)    1.89
          ---------------------------------------------------------------------

The optimization has not yet converged - more geometry cycles are needed


    ---------------------------------------------------------------------------
                         Redundant Internal Coordinates
                            (Angstroem and degrees)

        Definition                    Value    dE/dq     Step     New-Value
    ----------------------------------------------------------------------------
     1. B(H   1,N   0)                1.0166  0.000401 -0.0028    1.0138   
     2. B(H   2,N   0)                1.0164  0.000413 -0.0028    1.0136   
     3. B(H   3,N   0)                1.0167  0.000426 -0.0029    1.0138   
     4. A(H   1,N   0,H   3)          104.93 -0.000967    0.94    105.87   
     5. A(H   2,N   0,H   3)          104.94 -0.002265    0.93    105.87   
     6. A(H   1,N   0,H   2)          104.88 -0.000971    0.94    105.82   
     7. I(H   1,H   3,H   2,N   0)    -65.03 -0.002382    1.89    -63.14   
    ----------------------------------------------------------------------------

         *************************************************************
         *                GEOMETRY OPTIMIZATION CYCLE   3            *
         *************************************************************
---------------------------------
CARTESIAN COORDINATES (ANGSTROEM)
---------------------------------
  N     -0.013325   -0.018966    0.033047
  H     -0.322310   -0.455396   -0.828270
  H     -0.322327    0.944927   -0.019749
  H      0.998631    0.011215   -0.019499

----------------------------
CARTESIAN COORDINATES (A.U.)
----------------------------
  NO LB      ZA    FRAG     MASS         X           Y           Z
   0 N     7.0000    0    14.007   -0.025181   -0.035841    0.062451
   1 H     1.0000    0     1.008   -0.609077   -0.860573   -1.565203
   2 H     1.0000    0     1.008   -0.609109    1.785653   -0.037320
   3 H     1.0000    0     1.008    1.887140    0.021193   -0.036847

--------------------------------
INTERNAL COORDINATES (ANGSTROEM)
--------------------------------
 N      0   0   0     0.000000000000     0.00000000     0.00000000
 H      1   0   0     1.013809539900     0.00000000     0.00000000
 H      1   2   0     1.013587436057   105.79589338     0.00000000
 H      1   2   3     1.013769124308   105.84349977   247.94305691

---------------------------
INTERNAL COORDINATES (A.U.)
---------------------------
 N      0   0   0     0.000000000000     0.00000000     0.00000000
 H      1   0   0     1.915822382368     0.00000000     0.00000000
 H      1   2   0     1.915402666932   105.79589338     0.00000000
 H      1   2   3     1.915746007967   105.84349977   247.94305691



           ************************************************************
           *        Program running with 4 parallel MPI-processes     *
           *              working on a common directory               *
           ************************************************************


           ************************************************************
           *        Program running with 4 parallel MPI-processes     *
           *              working on a common directory               *
           ************************************************************

Diagonalization of the overlap matrix:
Smallest eigenvalue                        ... 1.744e-03
Time for diagonalization                   ...    0.001 sec
Threshold for overlap eigenvalues          ... 1.000e-08
Number of eigenvalues below threshold      ... 0
Time for construction of square roots      ...    0.000 sec
Total time needed                          ...    0.001 sec

-------------------
DFT GRID GENERATION
-------------------

General Integration Accuracy     IntAcc      ...  4.340
Radial Grid Type                 RadialGrid  ... Gauss-Chebyshev
Angular Grid (max. acc.)         AngularGrid ... Lebedev-110
Angular grid pruning method      GridPruning ... 3 (G Style)
Weight generation scheme         WeightScheme... Becke
Basis function cutoff            BFCut       ...    1.0000e-11
Integration weight cutoff        WCut        ...    1.0000e-14
Grids for H and He will be reduced by one unit

# of grid points (after initial pruning)     ...   4084 (   0.0 sec)
# of grid points (after weights+screening)   ...   4024 (   0.0 sec)
nearest neighbour list constructed           ...    0.0 sec
Grid point re-assignment to atoms done       ...    0.0 sec
Grid point division into batches done        ...    0.0 sec
Reduced shell lists constructed in    0.0 sec

Total number of grid points                  ...     4024
Total number of batches                      ...       65
Average number of points per batch           ...       61
Average number of grid points per atom       ...     1006
Average number of shells per batch           ...    25.00 (89.29%)
Average number of basis functions per batch  ...    63.44 (88.12%)
Average number of large shells per batch     ...    23.56 (94.22%)
Average number of large basis fcns per batch ...    59.67 (94.05%)
Maximum spatial batch extension              ...  18.70, 13.50, 16.36 au
Average spatial batch extension              ...   1.39,  1.21,  1.27 au

Time for grid setup =    0.005 sec

--------------
SCF ITERATIONS
--------------
ITER       Energy         Delta-E        Max-DP      RMS-DP      [F,P]     Damp
               ***  Starting incremental Fock matrix formation  ***
                      *** Initiating the SOSCF procedure ***
                      *** Re-Reading the Fockian *** 
                      *** Removing any level shift *** 
ITER      Energy       Delta-E        Grad      Rot      Max-DP    RMS-DP
  0    -56.54792113 -56.5479211298  0.002964  0.002964  0.002809  0.000137
               *** Restarting incremental Fock matrix formation ***
  1    -56.54797384  -0.0000527066  0.000744  0.001029  0.002289  0.000090
  2    -56.54797491  -0.0000010714  0.000809  0.000521  0.000530  0.000028
  3    -56.54797925  -0.0000043451  0.000057  0.000084  0.000087  0.000005
  4    -56.54797929  -0.0000000349  0.000007  0.000015  0.000011  0.000001
                 **** Energy Check signals convergence ****
              ***Rediagonalizing the Fockian in SOSCF/NRSCF***

               *****************************************************
               *                     SUCCESS                       *
               *           SCF CONVERGED AFTER   5 CYCLES          *
               *****************************************************

Setting up the final grid:

General Integration Accuracy     IntAcc      ...  4.670
Radial Grid Type                 RadialGrid  ... Gauss-Chebyshev
Angular Grid (max. acc.)         AngularGrid ... Lebedev-302
Angular grid pruning method      GridPruning ... 3 (G Style)
Weight generation scheme         WeightScheme... Becke
Basis function cutoff            BFCut       ...    1.0000e-11
Integration weight cutoff        WCut        ...    1.0000e-14
Grids for H and He will be reduced by one unit

# of grid points (after initial pruning)     ...  16394 (   0.0 sec)
# of grid points (after weights+screening)   ...  16125 (   0.0 sec)
nearest neighbour list constructed           ...    0.0 sec
Grid point re-assignment to atoms done       ...    0.0 sec
Grid point division into batches done        ...    0.0 sec
Reduced shell lists constructed in    0.0 sec

Total number of grid points                  ...    16125
Total number of batches                      ...      255
Average number of points per batch           ...       63
Average number of grid points per atom       ...     4031
Average number of shells per batch           ...    23.45 (83.74%)
Average number of basis functions per batch  ...    59.23 (82.26%)
Average number of large shells per batch     ...    22.48 (95.87%)
Average number of large basis fcns per batch ...    56.82 (95.92%)
Maximum spatial batch extension              ...  16.12, 16.58, 14.38 au
Average spatial batch extension              ...   0.86,  0.79,  0.78 au

Final grid set up in    0.0 sec
Final integration                            ... done (   0.0 sec)
Change in XC energy                          ...    -0.000190930
Integrated number of electrons               ...     9.999981921
Previous integrated no of electrons          ...    10.001232794
Total Energy       :          -56.54817022 Eh           -1538.75394 eV
  Last Energy change         ...   -5.9102e-10  Tolerance :   1.0000e-08
  Last MAX-Density change    ...    3.7765e-06  Tolerance :   1.0000e-07
             **** THE GBW FILE WAS UPDATED (ammonia_B3LYP_cc-pVTZ_OPT.gbw) ****
             **** DENSITY FILE WAS UPDATED (ammonia_B3LYP_cc-pVTZ_OPT.scfp) ****
             **** ENERGY FILE WAS UPDATED (ammonia_B3LYP_cc-pVTZ_OPT.en.tmp) ****
             **** THE GBW FILE WAS UPDATED (ammonia_B3LYP_cc-pVTZ_OPT.gbw) ****
             **** DENSITY FILE WAS UPDATED (ammonia_B3LYP_cc-pVTZ_OPT.scfp) ****
Total SCF time: 0 days 0 hours 0 min 0 sec 

-------------------------   --------------------
FINAL SINGLE POINT ENERGY       -56.548170218387
-------------------------   --------------------



           ************************************************************
           *        Program running with 4 parallel MPI-processes     *
           *              working on a common directory               *
           ************************************************************
------------------------------------------------------------------------------
                         ORCA SCF GRADIENT CALCULATION
------------------------------------------------------------------------------

Gradient of the Kohn-Sham DFT energy:
Kohn-Sham wavefunction type      ... RKS
Hartree-Fock exchange scaling    ...    0.200
Number of operators              ...    1
Number of atoms                  ...    4
Basis set dimensions             ...   72
Integral neglect threshold       ... 2.5e-11
Integral primitive cutoff        ... 2.5e-12

Nuclear repulsion gradient       ... done
One Electron Gradient            ... done
Pre-screening matrix             ... done
Starting the two electron gradient:
Two electron gradient done
Exchange-correlation gradient    ... done

------------------
CARTESIAN GRADIENT
------------------

   1   N   :   -0.000328799   -0.000471295    0.000996402
   2   H   :    0.000661797    0.000922710    0.000490329
   3   H   :    0.000688268   -0.000829671   -0.000755369
   4   H   :   -0.001021266    0.000378255   -0.000731362

Difference to translation invariance:
           :    0.0000000000   -0.0000000000   -0.0000000000

Norm of the cartesian gradient     ...    0.0025112615
RMS gradient                       ...    0.0007249387
MAX gradient                       ...    0.0010212656

-------
TIMINGS
-------

Total SCF gradient time            ...        0.534 sec

One electron gradient       ....       0.003 sec  (  0.6%)
Prescreening matrices       ....       0.024 sec  (  4.5%)
Two electron gradient       ....       0.337 sec  ( 63.1%)
XC gradient                 ....       0.054 sec  ( 10.2%)
------------------------------------------------------------------------------
                         ORCA GEOMETRY RELAXATION STEP
------------------------------------------------------------------------------

Reading the OPT-File                    .... done
Getting information on internals        .... done
Copying old internal coords+grads       .... done
Making the new internal coordinates     .... (new redundants).... done
Validating the new internal coordinates .... (new redundants).... done
Calculating the B-matrix                .... done
Calculating the G,G- and P matrices     .... done
Transforming gradient to internals      .... done
Projecting the internal gradient        .... done
Number of atoms                         ....   4
Number of internal coordinates          ....   7
Current Energy                          ....   -56.548170218 Eh
Current gradient norm                   ....     0.002511261 Eh/bohr
Maximum allowed component of the step   ....  0.300
Current trust radius                    ....  0.300
Updating the Hessian (BFGS)             .... done
Forming the augmented Hessian           .... done
Diagonalizing the augmented Hessian     .... done
Last element of RFO vector              ....  0.999591193
Lowest eigenvalues of augmented Hessian:
 -0.000044585  0.046308933  0.279396449  0.297918328  0.409139621
Length of the computed step             ....  0.028602713
The final length of the internal step   ....  0.028602713
Converting the step to cartesian space:
 Initial RMS(Int)=    0.0108108094
Transforming coordinates:
 Iter   0:  RMS(Cart)=    0.0053939546 RMS(Int)=    0.0108030907
 Iter   1:  RMS(Cart)=    0.0000387491 RMS(Int)=    0.0000575905
 Iter   2:  RMS(Cart)=    0.0000003203 RMS(Int)=    0.0000005263
 Iter   3:  RMS(Cart)=    0.0000000036 RMS(Int)=    0.0000000057
done
Storing new coordinates                 .... done

                                .--------------------.
          ----------------------|Geometry convergence|-------------------------
          Item                value                   Tolerance       Converged
          ---------------------------------------------------------------------
          Energy change      -0.0001016653            0.0000050000      NO
          RMS gradient        0.0008886670            0.0001000000      NO
          MAX gradient        0.0011234429            0.0003000000      NO
          RMS step            0.0108108094            0.0020000000      NO
          MAX step            0.0220303051            0.0040000000      NO
          ........................................................
          Max(Bonds)      0.0000      Max(Angles)    0.61
          Max(Dihed)        0.00      Max(Improp)    1.26
          ---------------------------------------------------------------------

The optimization has not yet converged - more geometry cycles are needed


    ---------------------------------------------------------------------------
                         Redundant Internal Coordinates
                            (Angstroem and degrees)

        Definition                    Value    dE/dq     Step     New-Value
    ----------------------------------------------------------------------------
     1. B(H   1,N   0)                1.0138 -0.000974  0.0000    1.0138   
     2. B(H   2,N   0)                1.0136 -0.000983  0.0000    1.0136   
     3. B(H   3,N   0)                1.0138 -0.000989  0.0000    1.0138   
     4. A(H   1,N   0,H   3)          105.84 -0.000439    0.61    106.45   
     5. A(H   2,N   0,H   3)          105.86 -0.000992    0.59    106.45   
     6. A(H   1,N   0,H   2)          105.80 -0.000445    0.61    106.41   
     7. I(H   1,H   3,H   2,N   0)    -63.11 -0.001123    1.26    -61.85   
    ----------------------------------------------------------------------------

         *************************************************************
         *                GEOMETRY OPTIMIZATION CYCLE   4            *
         *************************************************************
---------------------------------
CARTESIAN COORDINATES (ANGSTROEM)
---------------------------------
  N     -0.011163   -0.015900    0.027698
  H     -0.324773   -0.458892   -0.828620
  H     -0.324746    0.946963   -0.016896
  H      1.001352    0.009609   -0.016652

----------------------------
CARTESIAN COORDINATES (A.U.)
----------------------------
  NO LB      ZA    FRAG     MASS         X           Y           Z
   0 N     7.0000    0    14.007   -0.021094   -0.030047    0.052342
   1 H     1.0000    0     1.008   -0.613733   -0.867180   -1.565864
   2 H     1.0000    0     1.008   -0.613680    1.789501   -0.031929
   3 H     1.0000    0     1.008    1.892280    0.018158   -0.031468

--------------------------------
INTERNAL COORDINATES (ANGSTROEM)
--------------------------------
 N      0   0   0     0.000000000000     0.00000000     0.00000000
 H      1   0   0     1.013841048659     0.00000000     0.00000000
 H      1   2   0     1.013621771442   106.39200813     0.00000000
 H      1   2   3     1.013805950769   106.43815118   246.76437147

---------------------------
INTERNAL COORDINATES (A.U.)
---------------------------
 N      0   0   0     0.000000000000     0.00000000     0.00000000
 H      1   0   0     1.915881925293     0.00000000     0.00000000
 H      1   2   0     1.915467551405   106.39200813     0.00000000
 H      1   2   3     1.915815599893   106.43815118   246.76437147



           ************************************************************
           *        Program running with 4 parallel MPI-processes     *
           *              working on a common directory               *
           ************************************************************


           ************************************************************
           *        Program running with 4 parallel MPI-processes     *
           *              working on a common directory               *
           ************************************************************

Diagonalization of the overlap matrix:
Smallest eigenvalue                        ... 1.762e-03
Time for diagonalization                   ...    0.001 sec
Threshold for overlap eigenvalues          ... 1.000e-08
Number of eigenvalues below threshold      ... 0
Time for construction of square roots      ...    0.001 sec
Total time needed                          ...    0.002 sec

-------------------
DFT GRID GENERATION
-------------------

General Integration Accuracy     IntAcc      ...  4.340
Radial Grid Type                 RadialGrid  ... Gauss-Chebyshev
Angular Grid (max. acc.)         AngularGrid ... Lebedev-110
Angular grid pruning method      GridPruning ... 3 (G Style)
Weight generation scheme         WeightScheme... Becke
Basis function cutoff            BFCut       ...    1.0000e-11
Integration weight cutoff        WCut        ...    1.0000e-14
Grids for H and He will be reduced by one unit

# of grid points (after initial pruning)     ...   4084 (   0.0 sec)
# of grid points (after weights+screening)   ...   4024 (   0.0 sec)
nearest neighbour list constructed           ...    0.0 sec
Grid point re-assignment to atoms done       ...    0.0 sec
Grid point division into batches done        ...    0.0 sec
Reduced shell lists constructed in    0.0 sec

Total number of grid points                  ...     4024
Total number of batches                      ...       65
Average number of points per batch           ...       61
Average number of grid points per atom       ...     1006
Average number of shells per batch           ...    25.06 (89.48%)
Average number of basis functions per batch  ...    64.06 (88.97%)
Average number of large shells per batch     ...    23.50 (93.79%)
Average number of large basis fcns per batch ...    59.72 (93.24%)
Maximum spatial batch extension              ...  13.93, 17.10, 18.30 au
Average spatial batch extension              ...   1.14,  1.33,  1.43 au

Time for grid setup =    0.008 sec

--------------
SCF ITERATIONS
--------------
ITER       Energy         Delta-E        Max-DP      RMS-DP      [F,P]     Damp
               ***  Starting incremental Fock matrix formation  ***
                      *** Initiating the SOSCF procedure ***
                      *** Re-Reading the Fockian *** 
                      *** Removing any level shift *** 
ITER      Energy       Delta-E        Grad      Rot      Max-DP    RMS-DP
  0    -56.54797601 -56.5479760069  0.002053  0.002053  0.001479  0.000072
               *** Restarting incremental Fock matrix formation ***
  1    -56.54799435  -0.0000183388  0.000373  0.000520  0.000893  0.000039
  2    -56.54799503  -0.0000006799  0.000249  0.000254  0.000309  0.000014
  3    -56.54799538  -0.0000003553  0.000067  0.000106  0.000146  0.000007
  4    -56.54799544  -0.0000000548  0.000008  0.000011  0.000016  0.000001
                 **** Energy Check signals convergence ****
              ***Rediagonalizing the Fockian in SOSCF/NRSCF***

               *****************************************************
               *                     SUCCESS                       *
               *           SCF CONVERGED AFTER   5 CYCLES          *
               *****************************************************

Setting up the final grid:

General Integration Accuracy     IntAcc      ...  4.670
Radial Grid Type                 RadialGrid  ... Gauss-Chebyshev
Angular Grid (max. acc.)         AngularGrid ... Lebedev-302
Angular grid pruning method      GridPruning ... 3 (G Style)
Weight generation scheme         WeightScheme... Becke
Basis function cutoff            BFCut       ...    1.0000e-11
Integration weight cutoff        WCut        ...    1.0000e-14
Grids for H and He will be reduced by one unit

# of grid points (after initial pruning)     ...  16394 (   0.0 sec)
# of grid points (after weights+screening)   ...  16130 (   0.0 sec)
nearest neighbour list constructed           ...    0.0 sec
Grid point re-assignment to atoms done       ...    0.0 sec
Grid point division into batches done        ...    0.0 sec
Reduced shell lists constructed in    0.0 sec

Total number of grid points                  ...    16130
Total number of batches                      ...      254
Average number of points per batch           ...       63
Average number of grid points per atom       ...     4032
Average number of shells per batch           ...    23.37 (83.46%)
Average number of basis functions per batch  ...    58.78 (81.65%)
Average number of large shells per batch     ...    22.46 (96.12%)
Average number of large basis fcns per batch ...    56.65 (96.36%)
Maximum spatial batch extension              ...  16.11, 16.88, 16.88 au
Average spatial batch extension              ...   0.80,  0.81,  0.82 au

Final grid set up in    0.0 sec
Final integration                            ... done (   0.0 sec)
Change in XC energy                          ...    -0.000199011
Integrated number of electrons               ...     9.999983853
Previous integrated no of electrons          ...    10.001241605
Total Energy       :          -56.54819445 Eh           -1538.75460 eV
  Last Energy change         ...   -3.8393e-10  Tolerance :   1.0000e-08
  Last MAX-Density change    ...    9.5503e-07  Tolerance :   1.0000e-07
             **** THE GBW FILE WAS UPDATED (ammonia_B3LYP_cc-pVTZ_OPT.gbw) ****
             **** DENSITY FILE WAS UPDATED (ammonia_B3LYP_cc-pVTZ_OPT.scfp) ****
             **** ENERGY FILE WAS UPDATED (ammonia_B3LYP_cc-pVTZ_OPT.en.tmp) ****
             **** THE GBW FILE WAS UPDATED (ammonia_B3LYP_cc-pVTZ_OPT.gbw) ****
             **** DENSITY FILE WAS UPDATED (ammonia_B3LYP_cc-pVTZ_OPT.scfp) ****
Total SCF time: 0 days 0 hours 0 min 1 sec 

-------------------------   --------------------
FINAL SINGLE POINT ENERGY       -56.548194446861
-------------------------   --------------------



           ************************************************************
           *        Program running with 4 parallel MPI-processes     *
           *              working on a common directory               *
           ************************************************************
------------------------------------------------------------------------------
                         ORCA SCF GRADIENT CALCULATION
------------------------------------------------------------------------------

Gradient of the Kohn-Sham DFT energy:
Kohn-Sham wavefunction type      ... RKS
Hartree-Fock exchange scaling    ...    0.200
Number of operators              ...    1
Number of atoms                  ...    4
Basis set dimensions             ...   72
Integral neglect threshold       ... 2.5e-11
Integral primitive cutoff        ... 2.5e-12

Nuclear repulsion gradient       ... done
One Electron Gradient            ... done
Pre-screening matrix             ... done
Starting the two electron gradient:
Two electron gradient done
Exchange-correlation gradient    ... done

------------------
CARTESIAN GRADIENT
------------------

   1   N   :    0.000072837    0.000095748   -0.000010335
   2   H   :    0.000099353    0.000129643    0.000318557
   3   H   :    0.000136160   -0.000275404   -0.000161448
   4   H   :   -0.000308350    0.000050012   -0.000146774

Difference to translation invariance:
           :    0.0000000000    0.0000000000   -0.0000000000

Norm of the cartesian gradient     ...    0.0006183148
RMS gradient                       ...    0.0001784921
MAX gradient                       ...    0.0003185572

-------
TIMINGS
-------

Total SCF gradient time            ...        0.568 sec

One electron gradient       ....       0.003 sec  (  0.6%)
Prescreening matrices       ....       0.024 sec  (  4.2%)
Two electron gradient       ....       0.340 sec  ( 59.8%)
XC gradient                 ....       0.086 sec  ( 15.2%)
------------------------------------------------------------------------------
                         ORCA GEOMETRY RELAXATION STEP
------------------------------------------------------------------------------

Reading the OPT-File                    .... done
Getting information on internals        .... done
Copying old internal coords+grads       .... done
Making the new internal coordinates     .... (new redundants).... done
Validating the new internal coordinates .... (new redundants).... done
Calculating the B-matrix                .... done
Calculating the G,G- and P matrices     .... done
Transforming gradient to internals      .... done
Projecting the internal gradient        .... done
Number of atoms                         ....   4
Number of internal coordinates          ....   7
Current Energy                          ....   -56.548194447 Eh
Current gradient norm                   ....     0.000618315 Eh/bohr
[...]
   Fraction old density DampFac         ....    0.7000
   Max. Damping (<1)    DampMax         ....    0.9800
   Min. Damping (>=0)   DampMin         ....    0.0000
   Turn off err/grad.   DampErr         ....    0.1000
 Fernandez-Rico         CNVRico         .... off

SCF Procedure:
 Maximum # iterations   MaxIter         ....   125
 SCF integral mode      SCFMode         .... Direct
   Integral package                     .... LIBINT
 Reset frequency        DirectResetFreq ....    20
 Integral Threshold     Thresh          ....  2.500e-11 Eh
 Primitive CutOff       TCut            ....  2.500e-12 Eh

Convergence Tolerance:
 Convergence Check Mode ConvCheckMode   .... Total+1el-Energy
 Convergence forced     ConvForced      .... 0
 Energy Change          TolE            ....  1.000e-08 Eh
 1-El. energy change                    ....  1.000e-05 Eh
 Orbital Gradient       TolG            ....  1.000e-05
 Orbital Rotation angle TolX            ....  1.000e-05
 DIIS Error             TolErr          ....  5.000e-07


Diagonalization of the overlap matrix:
Smallest eigenvalue                        ... 1.765e-03
Time for diagonalization                   ...    0.001 sec
Threshold for overlap eigenvalues          ... 1.000e-08
Number of eigenvalues below threshold      ... 0
Time for construction of square roots      ...    0.000 sec
Total time needed                          ...    0.001 sec

---------------------
INITIAL GUESS: MOREAD
---------------------
Guess MOs are being read from file: ammonia_B3LYP_cc-pVTZ_OPT.gbw
Input Geometry matches current geometry (good)
Input basis set matches current basis set (good)
MOs were renormalized
MOs were reorthogonalized (Cholesky)
                      ------------------
                      INITIAL GUESS DONE (   0.0 sec)
                      ------------------
-------------------
DFT GRID GENERATION
-------------------

General Integration Accuracy     IntAcc      ...  4.340
Radial Grid Type                 RadialGrid  ... Gauss-Chebyshev
Angular Grid (max. acc.)         AngularGrid ... Lebedev-110
Angular grid pruning method      GridPruning ... 3 (G Style)
Weight generation scheme         WeightScheme... Becke
Basis function cutoff            BFCut       ...    1.0000e-11
Integration weight cutoff        WCut        ...    1.0000e-14
Grids for H and He will be reduced by one unit

# of grid points (after initial pruning)     ...   4084 (   0.0 sec)
# of grid points (after weights+screening)   ...   4024 (   0.0 sec)
nearest neighbour list constructed           ...    0.0 sec
Grid point re-assignment to atoms done       ...    0.0 sec
Grid point division into batches done        ...    0.0 sec
Reduced shell lists constructed in    0.0 sec

Total number of grid points                  ...     4024
Total number of batches                      ...       65
Average number of points per batch           ...       61
Average number of grid points per atom       ...     1006
Average number of shells per batch           ...    25.22 (90.08%)
Average number of basis functions per batch  ...    64.33 (89.35%)
Average number of large shells per batch     ...    23.67 (93.83%)
Average number of large basis fcns per batch ...    60.22 (93.61%)
Maximum spatial batch extension              ...  16.86, 17.10, 18.30 au
Average spatial batch extension              ...   1.27,  1.33,  1.43 au

Time for grid setup =    0.005 sec

--------------
SCF ITERATIONS
--------------
ITER       Energy         Delta-E        Max-DP      RMS-DP      [F,P]     Damp
               ***  Starting incremental Fock matrix formation  ***
                      *** Initiating the SOSCF procedure ***
                      *** Re-Reading the Fockian *** 
                      *** Removing any level shift *** 
ITER      Energy       Delta-E        Grad      Rot      Max-DP    RMS-DP
  0    -56.54799381 -56.5479938147  0.000012  0.000012  0.000005  0.000000
               *** Restarting incremental Fock matrix formation ***
  1    -56.54799382  -0.0000000006  0.000003  0.000004  0.000009  0.000000
  2    -56.54799382  -0.0000000000  0.000004  0.000003  0.000003  0.000000
                 **** Energy Check signals convergence ****
              ***Rediagonalizing the Fockian in SOSCF/NRSCF***

               *****************************************************
               *                     SUCCESS                       *
               *           SCF CONVERGED AFTER   3 CYCLES          *
               *****************************************************

Setting up the final grid:

General Integration Accuracy     IntAcc      ...  4.670
Radial Grid Type                 RadialGrid  ... Gauss-Chebyshev
Angular Grid (max. acc.)         AngularGrid ... Lebedev-302
Angular grid pruning method      GridPruning ... 3 (G Style)
Weight generation scheme         WeightScheme... Becke
Basis function cutoff            BFCut       ...    1.0000e-11
Integration weight cutoff        WCut        ...    1.0000e-14
Grids for H and He will be reduced by one unit

# of grid points (after initial pruning)     ...  16394 (   0.0 sec)
# of grid points (after weights+screening)   ...  16130 (   0.0 sec)
nearest neighbour list constructed           ...    0.0 sec
Grid point re-assignment to atoms done       ...    0.0 sec
Grid point division into batches done        ...    0.0 sec
Reduced shell lists constructed in    0.0 sec

Total number of grid points                  ...    16130
Total number of batches                      ...      254
Average number of points per batch           ...       63
Average number of grid points per atom       ...     4032
Average number of shells per batch           ...    23.40 (83.57%)
Average number of basis functions per batch  ...    58.91 (81.82%)
Average number of large shells per batch     ...    22.51 (96.19%)
Average number of large basis fcns per batch ...    56.85 (96.50%)
Maximum spatial batch extension              ...  16.11, 16.58, 16.88 au
Average spatial batch extension              ...   0.82,  0.79,  0.84 au

Final grid set up in    0.0 sec
Final integration                            ... done (   0.0 sec)
Change in XC energy                          ...    -0.000201141
Integrated number of electrons               ...     9.999984052
Previous integrated no of electrons          ...    10.001234773

----------------
TOTAL SCF ENERGY
----------------

Total Energy       :          -56.54819496 Eh           -1538.75461 eV

Components:
Nuclear Repulsion  :           11.93576745 Eh             324.78874 eV
Electronic Energy  :          -68.48396240 Eh           -1863.54336 eV
One Electron Energy:          -99.71352286 Eh           -2713.34290 eV
Two Electron Energy:           31.22956045 Eh             849.79954 eV

Virial components:
Potential Energy   :         -112.78351366 Eh           -3068.99543 eV
Kinetic Energy     :           56.23531870 Eh            1530.24082 eV
Virial Ratio       :            2.00556370


DFT components:
N(Alpha)           :        4.999992026156 electrons
N(Beta)            :        4.999992026156 electrons
N(Total)           :        9.999984052313 electrons
E(X)               :       -6.091298053434 Eh       
E(C)               :       -0.376977601577 Eh       
E(XC)              :       -6.468275655010 Eh       
DFET-embed. en.    :        0.000000000000 Eh       

---------------
SCF CONVERGENCE
---------------

  Last Energy change         ...   -1.2001e-10  Tolerance :   1.0000e-08
  Last MAX-Density change    ...    4.8124e-07  Tolerance :   1.0000e-07
  Last RMS-Density change    ...    1.8523e-08  Tolerance :   5.0000e-09
  Last Orbital Gradient      ...    1.0378e-07  Tolerance :   1.0000e-05
  Last Orbital Rotation      ...    1.5361e-07  Tolerance :   1.0000e-05

             **** THE GBW FILE WAS UPDATED (ammonia_B3LYP_cc-pVTZ_OPT.gbw) ****
             **** DENSITY FILE WAS UPDATED (ammonia_B3LYP_cc-pVTZ_OPT.scfp) ****
             **** ENERGY FILE WAS UPDATED (ammonia_B3LYP_cc-pVTZ_OPT.en.tmp) ****
             **** THE GBW FILE WAS UPDATED (ammonia_B3LYP_cc-pVTZ_OPT.gbw) ****
             **** DENSITY FILE WAS UPDATED (ammonia_B3LYP_cc-pVTZ_OPT.scfp) ****
----------------
ORBITAL ENERGIES
----------------

  NO   OCC          E(Eh)            E(eV) 
   0   2.0000     -14.286041      -388.7429 
   1   2.0000      -0.846930       -23.0461 
   2   2.0000      -0.455836       -12.4039 
   3   2.0000      -0.455695       -12.4001 
   4   2.0000      -0.262431        -7.1411 
   5   0.0000       0.032130         0.8743 
   6   0.0000       0.112330         3.0566 
   7   0.0000       0.113833         3.0976 
   8   0.0000       0.321829         8.7574 
   9   0.0000       0.324667         8.8346 
  10   0.0000       0.425790        11.5863 
  11   0.0000       0.454917        12.3789 
  12   0.0000       0.530507        14.4358 
  13   0.0000       0.533573        14.5193 
  14   0.0000       0.574040        15.6204 
  15   0.0000       0.574159        15.6237 
  16   0.0000       0.616567        16.7776 
  17   0.0000       0.931800        25.3556 
  18   0.0000       0.948103        25.7992 
  19   0.0000       1.022831        27.8326 
  20   0.0000       1.024166        27.8690 
  21   0.0000       1.220836        33.2206 
  22   0.0000       1.222011        33.2526 
  23   0.0000       1.350299        36.7435 
  24   0.0000       1.519932        41.3595 
  25   0.0000       1.520932        41.3867 
  26   0.0000       1.551680        42.2234 
  27   0.0000       1.551692        42.2237 
  28   0.0000       1.633023        44.4368 
  29   0.0000       2.274902        61.9032 
  30   0.0000       2.275807        61.9279 
  31   0.0000       2.342366        63.7390 
  32   0.0000       3.007837        81.8474 
  33   0.0000       3.133384        85.2637 
  34   0.0000       3.150012        85.7162 
  35   0.0000       3.151703        85.7622 
  36   0.0000       3.215597        87.5008 
  37   0.0000       3.228553        87.8534 
  38   0.0000       3.229087        87.8679 
  39   0.0000       3.395848        92.4057 
  40   0.0000       3.447986        93.8245 
  41   0.0000       3.449216        93.8579 
  42   0.0000       3.471062        94.4524 
  43   0.0000       3.471269        94.4580 
  44   0.0000       3.648368        99.2771 
  45   0.0000       3.648660        99.2851 
  46   0.0000       3.669768        99.8595 
  47   0.0000       3.807915       103.6186 
  48   0.0000       3.901805       106.1735 
  49   0.0000       3.904398       106.2441 
  50   0.0000       4.068726       110.7157 
  51   0.0000       4.069987       110.7500 
  52   0.0000       4.202242       114.3488 
  53   0.0000       4.202416       114.3536 
  54   0.0000       4.285362       116.6106 
  55   0.0000       4.325071       117.6912 
  56   0.0000       4.665806       126.9630 
  57   0.0000       4.842112       131.7606 
  58   0.0000       4.844292       131.8199 
  59   0.0000       4.936288       134.3232 
  60   0.0000       5.340144       145.3127 
  61   0.0000       5.340969       145.3352 
  62   0.0000       5.495315       149.5351 
  63   0.0000       5.768696       156.9742 
  64   0.0000       5.770313       157.0182 
  65   0.0000       5.859700       159.4506 
  66   0.0000       5.935492       161.5129 
  67   0.0000       5.936250       161.5336 
  68   0.0000       5.939288       161.6162 
  69   0.0000       6.800773       185.0584 
  70   0.0000       6.801322       185.0734 
  71   0.0000      13.241336       360.3151 

                    ********************************
                    * MULLIKEN POPULATION ANALYSIS *
                    ********************************

-----------------------
MULLIKEN ATOMIC CHARGES
-----------------------
   0 N :   -0.470510
   1 H :    0.158721
   2 H :    0.154832
   3 H :    0.156957
Sum of atomic charges:   -0.0000000

--------------------------------
MULLIKEN REDUCED ORBITAL CHARGES
--------------------------------
  0 N s       :     3.534625  s :     3.534625
      pz      :     1.537045  p :     3.916500
      px      :     1.147612
      py      :     1.231843
      dz2     :     0.007098  d :     0.018790
      dxz     :     0.001899
      dyz     :     0.002941
      dx2y2   :     0.006337
      dxy     :     0.000514
      f0      :    -0.000046  f :     0.000594
      f+1     :     0.000160
      f-1     :     0.000290
      f+2     :    -0.000008
      f-2     :     0.000026
      f+3     :     0.000206
      f-3     :    -0.000033
  1 H s       :     0.779628  s :     0.779628
      pz      :     0.029735  p :     0.057208
      px      :     0.014070
      py      :     0.013403
      dz2     :     0.001921  d :     0.004443
      dxz     :     0.000815
      dyz     :     0.000992
      dx2y2   :     0.000414
      dxy     :     0.000301
  2 H s       :     0.783766  s :     0.783766
      pz      :     0.020274  p :     0.056904
      px      :     0.013986
      py      :     0.022644
      dz2     :     0.000401  d :     0.004498
      dxz     :     0.000139
      dyz     :     0.001443
      dx2y2   :     0.001508
      dxy     :     0.001006
  3 H s       :     0.781207  s :     0.781207
      pz      :     0.021065  p :     0.057210
      px      :     0.018780
      py      :     0.017364
      dz2     :     0.000429  d :     0.004626
      dxz     :     0.001669
      dyz     :     0.000004
      dx2y2   :     0.001198
      dxy     :     0.001327


                     *******************************
                     * LOEWDIN POPULATION ANALYSIS *
                     *******************************

----------------------
LOEWDIN ATOMIC CHARGES
----------------------
   0 N :    0.311769
   1 H :   -0.103844
   2 H :   -0.103821
   3 H :   -0.104105

-------------------------------
LOEWDIN REDUCED ORBITAL CHARGES
-------------------------------
  0 N s       :     2.899531  s :     2.899531
      pz      :     1.365908  p :     3.695435
      px      :     1.141933
      py      :     1.187593
      dz2     :     0.022389  d :     0.085268
      dxz     :     0.005646
      dyz     :     0.011183
      dx2y2   :     0.036233
      dxy     :     0.009817
      f0      :     0.000721  f :     0.007997
      f+1     :     0.001460
      f-1     :     0.001473
      f+2     :     0.000333
      f-2     :     0.000740
      f+3     :     0.002302
      f-3     :     0.000968
  1 H s       :     0.778360  s :     0.778360
      pz      :     0.130522  p :     0.266750
      px      :     0.063765
      py      :     0.072463
      dz2     :     0.022383  d :     0.058734
      dxz     :     0.011921
      dyz     :     0.012967
      dx2y2   :     0.005814
      dxy     :     0.005648
  2 H s       :     0.778612  s :     0.778612
      pz      :     0.087645  p :     0.266413
      px      :     0.063816
      py      :     0.114952
      dz2     :     0.004586  d :     0.058796
      dxz     :     0.002010
      dyz     :     0.019739
      dx2y2   :     0.016874
      dxy     :     0.015587
  3 H s       :     0.778617  s :     0.778617
      pz      :     0.087984  p :     0.266827
      px      :     0.112712
      py      :     0.066131
      dz2     :     0.004592  d :     0.058661
      dxz     :     0.021684
      dyz     :     0.000024
      dx2y2   :     0.013992
      dxy     :     0.018369


                      *****************************
                      * MAYER POPULATION ANALYSIS *
                      *****************************

  NA   - Mulliken gross atomic population
  ZA   - Total nuclear charge
  QA   - Mulliken gross atomic charge
  VA   - Mayer's total valence
  BVA  - Mayer's bonded valence
  FA   - Mayer's free valence

  ATOM       NA         ZA         QA         VA         BVA        FA
  0 N      7.4705     7.0000    -0.4705     2.9708     2.9708    -0.0000
  1 H      0.8413     1.0000     0.1587     1.0075     1.0075    -0.0000
  2 H      0.8452     1.0000     0.1548     1.0085     1.0085    -0.0000
  3 H      0.8430     1.0000     0.1570     1.0085     1.0085    -0.0000

  Mayer bond orders larger than 0.100000
B(  0-N ,  1-H ) :   0.9897 B(  0-N ,  2-H ) :   0.9908 B(  0-N ,  3-H ) :   0.9903 


-------
TIMINGS
-------

Total SCF time: 0 days 0 hours 0 min 0 sec 

Total time                  ....       0.722 sec
Sum of individual times     ....       0.576 sec  ( 79.7%)

Fock matrix formation       ....       0.522 sec  ( 72.3%)
  XC integration            ....       0.039 sec  (  7.5% of F)
    Basis function eval.    ....       0.010 sec  ( 25.0% of XC)
    Density eval.           ....       0.005 sec  ( 13.6% of XC)
    XC-Functional eval.     ....       0.003 sec  (  8.7% of XC)
    XC-Potential eval.      ....       0.010 sec  ( 25.6% of XC)
Diagonalization             ....       0.001 sec  (  0.1%)
Density matrix formation    ....       0.000 sec  (  0.0%)
Population analysis         ....       0.001 sec  (  0.1%)
Initial guess               ....       0.001 sec  (  0.2%)
Orbital Transformation      ....       0.000 sec  (  0.0%)
Orbital Orthonormalization  ....       0.000 sec  (  0.1%)
DIIS solution               ....       0.000 sec  (  0.0%)
SOSCF solution              ....       0.001 sec  (  0.1%)
Grid generation             ....       0.050 sec  (  6.9%)

-------------------------   --------------------
FINAL SINGLE POINT ENERGY       -56.548194956566
-------------------------   --------------------

                                *** OPTIMIZATION RUN DONE ***

                            ***************************************
                            *     ORCA property calculations      *
                            ***************************************

                                    ---------------------
                                    Active property flags
                                    ---------------------
   (+) Dipole Moment


------------------------------------------------------------------------------
                       ORCA ELECTRIC PROPERTIES CALCULATION
------------------------------------------------------------------------------

Dipole Moment Calculation                       ... on
Quadrupole Moment Calculation                   ... off
Polarizability Calculation                      ... off
GBWName                                         ... ammonia_B3LYP_cc-pVTZ_OPT.gbw
Electron density file                           ... ammonia_B3LYP_cc-pVTZ_OPT.scfp
The origin for moment calculation is the CENTER OF MASS  = ( 0.022295,  0.031379 -0.054251)

-------------
DIPOLE MOMENT
-------------
                                X             Y             Z
Electronic contribution:     -0.08963      -0.12498       0.22168
Nuclear contribution   :      0.29656       0.41972      -0.72719
                        -----------------------------------------
Total Dipole Moment    :      0.20693       0.29474      -0.50552
                        -----------------------------------------
Magnitude (a.u.)       :      0.62067
Magnitude (Debye)      :      1.57763



--------------------
Rotational spectrum 
--------------------
 
Rotational constants in cm-1:     9.924478     9.917584     6.333501 
Rotational constants in MHz : 297528.372560 297321.692192 189873.589953 

 Dipole components along the rotational axes: 
x,y,z [a.u.] :     0.000417     0.002421    -0.620668 
x,y,z [Debye]:     0.001060     0.006154    -1.577613 

 

Timings for individual modules:

Sum of individual times         ...       12.137 sec (=   0.202 min)
GTO integral calculation        ...        1.934 sec (=   0.032 min)  15.9 %
SCF iterations                  ...        7.099 sec (=   0.118 min)  58.5 %
SCF Gradient evaluation         ...        3.010 sec (=   0.050 min)  24.8 %
Geometry relaxation             ...        0.093 sec (=   0.002 min)   0.8 %
                             ****ORCA TERMINATED NORMALLY****
TOTAL RUN TIME: 0 days 0 hours 0 minutes 12 seconds 353 msec
