
                                 *****************
                                 * O   R   C   A *
                                 *****************

                                            #,                                       
                                            ###                                      
                                            ####                                     
                                            #####                                    
                                            ######                                   
                                           ########,                                 
                                     ,,################,,,,,                         
                               ,,#################################,,                 
                          ,,##########################################,,             
                       ,#########################################, ''#####,          
                    ,#############################################,,   '####,        
                  ,##################################################,,,,####,       
                ,###########''''           ''''###############################       
              ,#####''   ,,,,##########,,,,          '''####'''          '####       
            ,##' ,,,,###########################,,,                        '##       
           ' ,,###''''                  '''############,,,                           
         ,,##''                                '''############,,,,        ,,,,,,###''
      ,#''                                            '''#######################'''  
     '                                                          ''''####''''         
             ,#######,   #######,   ,#######,      ##                                
            ,#'     '#,  ##    ##  ,#'     '#,    #''#        ######   ,####,        
            ##       ##  ##   ,#'  ##            #'  '#       #        #'  '#        
            ##       ##  #######   ##           ,######,      #####,   #    #        
            '#,     ,#'  ##    ##  '#,     ,#' ,#      #,         ##   #,  ,#        
             '#######'   ##     ##  '#######'  #'      '#     #####' # '####'        



                  #######################################################
                  #                        -***-                        #
                  #          Department of theory and spectroscopy      #
                  #    Directorship and core code : Frank Neese         #
                  #        Max Planck Institute fuer Kohlenforschung    #
                  #                Kaiser Wilhelm Platz 1               #
                  #                 D-45470 Muelheim/Ruhr               #
                  #                      Germany                        #
                  #                                                     #
                  #                  All rights reserved                #
                  #                        -***-                        #
                  #######################################################


                         Program Version 5.0.1 -  RELEASE  -


 With contributions from (in alphabetic order):
   Daniel Aravena         : Magnetic Suceptibility
   Michael Atanasov       : Ab Initio Ligand Field Theory (pilot matlab implementation)
   Alexander A. Auer      : GIAO ZORA, VPT2 properties, NMR spectrum
   Ute Becker             : Parallelization
   Giovanni Bistoni       : ED, misc. LED, open-shell LED, HFLD
   Martin Brehm           : Molecular dynamics
   Dmytro Bykov           : SCF Hessian
   Vijay G. Chilkuri      : MRCI spin determinant printing, contributions to CSF-ICE
   Dipayan Datta          : RHF DLPNO-CCSD density
   Achintya Kumar Dutta   : EOM-CC, STEOM-CC
   Dmitry Ganyushin       : Spin-Orbit,Spin-Spin,Magnetic field MRCI
   Miquel Garcia          : C-PCM and meta-GGA Hessian, CC/C-PCM, Gaussian charge scheme
   Yang Guo               : DLPNO-NEVPT2, F12-NEVPT2, CIM, IAO-localization
   Andreas Hansen         : Spin unrestricted coupled pair/coupled cluster methods
   Benjamin Helmich-Paris : MC-RPA, TRAH-SCF, COSX integrals
   Lee Huntington         : MR-EOM, pCC
   Robert Izsak           : Overlap fitted RIJCOSX, COSX-SCS-MP3, EOM
   Marcus Kettner         : VPT2
   Christian Kollmar      : KDIIS, OOCD, Brueckner-CCSD(T), CCSD density, CASPT2, CASPT2-K
   Simone Kossmann        : Meta GGA functionals, TD-DFT gradient, OOMP2, MP2 Hessian
   Martin Krupicka        : Initial AUTO-CI
   Lucas Lang             : DCDCAS
   Marvin Lechner         : AUTO-CI (C++ implementation), FIC-MRCC
   Dagmar Lenk            : GEPOL surface, SMD
   Dimitrios Liakos       : Extrapolation schemes; Compound Job, initial MDCI parallelization
   Dimitrios Manganas     : Further ROCIS development; embedding schemes
   Dimitrios Pantazis     : SARC Basis sets
   Anastasios Papadopoulos: AUTO-CI, single reference methods and gradients
   Taras Petrenko         : DFT Hessian,TD-DFT gradient, ASA, ECA, R-Raman, ABS, FL, XAS/XES, NRVS
   Peter Pinski           : DLPNO-MP2, DLPNO-MP2 Gradient
   Christoph Reimann      : Effective Core Potentials
   Marius Retegan         : Local ZFS, SOC
   Christoph Riplinger    : Optimizer, TS searches, QM/MM, DLPNO-CCSD(T), (RO)-DLPNO pert. Triples
   Tobias Risthaus        : Range-separated hybrids, TD-DFT gradient, RPA, STAB
   Michael Roemelt        : Original ROCIS implementation
   Masaaki Saitow         : Open-shell DLPNO-CCSD energy and density
   Barbara Sandhoefer     : DKH picture change effects
   Avijit Sen             : IP-ROCIS
   Kantharuban Sivalingam : CASSCF convergence, NEVPT2, FIC-MRCI
   Bernardo de Souza      : ESD, SOC TD-DFT
   Georgi Stoychev        : AutoAux, RI-MP2 NMR, DLPNO-MP2 response
   Willem Van den Heuvel  : Paramagnetic NMR
   Boris Wezisla          : Elementary symmetry handling
   Frank Wennmohs         : Technical directorship


 We gratefully acknowledge several colleagues who have allowed us to
 interface, adapt or use parts of their codes:
   Stefan Grimme, W. Hujo, H. Kruse, P. Pracht,  : VdW corrections, initial TS optimization,
                  C. Bannwarth, S. Ehlert          DFT functionals, gCP, sTDA/sTD-DF
   Ed Valeev, F. Pavosevic, A. Kumar             : LibInt (2-el integral package), F12 methods
   Garnet Chan, S. Sharma, J. Yang, R. Olivares  : DMRG
   Ulf Ekstrom                                   : XCFun DFT Library
   Mihaly Kallay                                 : mrcc  (arbitrary order and MRCC methods)
   Jiri Pittner, Ondrej Demel                    : Mk-CCSD
   Frank Weinhold                                : gennbo (NPA and NBO analysis)
   Christopher J. Cramer and Donald G. Truhlar   : smd solvation model
   Lars Goerigk                                  : TD-DFT with DH, B97 family of functionals
   V. Asgeirsson, H. Jonsson                     : NEB implementation
   FAccTs GmbH                                   : IRC, NEB, NEB-TS, DLPNO-Multilevel, CI-OPT
                                                   MM, QMMM, 2- and 3-layer-ONIOM, Crystal-QMMM,
                                                   LR-CPCM, SF, NACMEs, symmetry and pop. for TD-DFT,
                                                   nearIR, NL-DFT gradient (VV10), updates on ESD,
                                                   ML-optimized integration grids
   S Lehtola, MJT Oliveira, MAL Marques          : LibXC Library
   Liviu Ungur et al                             : ANISO software


 Your calculation uses the libint2 library for the computation of 2-el integrals
 For citations please refer to: http://libint.valeyev.net

 Your ORCA version has been built with support for libXC version: 5.1.0
 For citations please refer to: https://tddft.org/programs/libxc/

 This ORCA versions uses:
   CBLAS   interface :  Fast vector & matrix operations
   LAPACKE interface :  Fast linear algebra routines
   SCALAPACK package :  Parallel linear algebra routines
   Shared memory     :  Shared parallel matrices
   BLAS/LAPACK       :  OpenBLAS 0.3.15  USE64BITINT DYNAMIC_ARCH NO_AFFINITY Zen SINGLE_THREADED
        Core in use  :  Zen
   Copyright (c) 2011-2014, The OpenBLAS Project




***************************************
The coordinates will be read from file: phosphine.xyz
***************************************


================================================================================

----- Orbital basis set information -----
Your calculation utilizes the basis: def2-TZVP
   F. Weigend and R. Ahlrichs, Phys. Chem. Chem. Phys. 7, 3297 (2005).

----- AuxJ basis set information -----
Your calculation utilizes the auxiliary basis: def2/J
   F. Weigend, Phys. Chem. Chem. Phys. 8, 1057 (2006).

================================================================================
                                        WARNINGS
                       Please study these warnings very carefully!
================================================================================


WARNING: Geometry Optimization
  ===> : Switching off AutoStart
         For restart on a previous wavefunction, please use MOREAD

INFO   : the flag for use of the SHARK integral package has been found!

================================================================================
                                       INPUT FILE
================================================================================
NAME = phosphine_OPT.inp
|  1> 
|  2> %pal
|  3>   nprocs 6
|  4> end
|  5> %maxcore 2000
|  6> 
|  7> ! PBE0 def2-TZVP TightOPT Freq
|  8> ! RIJCOSX def2/J
|  9> 
| 10> * xyzfile 0 1 phosphine.xyz
| 11> 
| 12> 
| 13>                          ****END OF INPUT****
================================================================================

                       *****************************
                       * Geometry Optimization Run *
                       *****************************

Geometry optimization settings:
Update method            Update   .... BFGS
Choice of coordinates    CoordSys .... Z-matrix Internals
Initial Hessian          InHess   .... Almoef's Model

Convergence Tolerances:
Energy Change            TolE     ....  1.0000e-06 Eh
Max. Gradient            TolMAXG  ....  1.0000e-04 Eh/bohr
RMS Gradient             TolRMSG  ....  3.0000e-05 Eh/bohr
Max. Displacement        TolMAXD  ....  1.0000e-03 bohr
RMS Displacement         TolRMSD  ....  6.0000e-04 bohr
Strict Convergence                ....  False
------------------------------------------------------------------------------
                        ORCA OPTIMIZATION COORDINATE SETUP
------------------------------------------------------------------------------

The optimization will be done in new redundant internal coordinates
Making redundant internal coordinates   ...  (new redundants) done
Evaluating the initial hessian          ...  (Almloef) done
Evaluating the coordinates              ...  done
Calculating the B-matrix                .... done
Calculating the G-matrix                .... done
Diagonalizing the G-matrix              .... done
The first mode is                       ....    1
The number of degrees of freedom        ....    6

    -----------------------------------------------------------------
                    Redundant Internal Coordinates


    -----------------------------------------------------------------
         Definition                    Initial Value    Approx d2E/dq
    -----------------------------------------------------------------
      1. B(H   1,P   0)                  1.2649         0.636531   
      2. B(H   2,P   0)                  1.2649         0.636519   
      3. B(H   3,P   0)                  1.2649         0.636532   
      4. A(H   1,P   0,H   3)          104.1568         0.415197   
      5. A(H   2,P   0,H   3)          104.1565         0.415196   
      6. A(H   1,P   0,H   2)          104.1561         0.415196   
      7. I(H   1,H   3,H   2,P   0)     66.5503         0.004288   
    -----------------------------------------------------------------

Number of atoms                         .... 4
Number of degrees of freedom            .... 7

         *************************************************************
         *                GEOMETRY OPTIMIZATION CYCLE   1            *
         *************************************************************
---------------------------------
CARTESIAN COORDINATES (ANGSTROEM)
---------------------------------
  P     -0.029660   -0.041950    0.072660
  H     -0.398830    1.164290   -0.020930
  H     -0.398830   -0.564030   -1.018770
  H      1.230650    0.012080   -0.020930

----------------------------
CARTESIAN COORDINATES (A.U.)
----------------------------
  NO LB      ZA    FRAG     MASS         X           Y           Z
   0 P    15.0000    0    30.974   -0.056049   -0.079274    0.137308
   1 H     1.0000    0     1.008   -0.753679    2.200189   -0.039552
   2 H     1.0000    0     1.008   -0.753679   -1.065862   -1.925196
   3 H     1.0000    0     1.008    2.325591    0.022828   -0.039552

--------------------------------
INTERNAL COORDINATES (ANGSTROEM)
--------------------------------
 P      0   0   0     0.000000000000     0.00000000     0.00000000
 H      1   0   0     1.264934984337     0.00000000     0.00000000
 H      1   2   0     1.264940101428   104.15612708     0.00000000
 H      1   2   3     1.264934632738   104.15678231   108.88990330

---------------------------
INTERNAL COORDINATES (A.U.)
---------------------------
 P      0   0   0     0.000000000000     0.00000000     0.00000000
 H      1   0   0     2.390380697613     0.00000000     0.00000000
 H      1   2   0     2.390390367513   104.15612708     0.00000000
 H      1   2   3     2.390380033187   104.15678231   108.88990330

---------------------
BASIS SET INFORMATION
---------------------
There are 2 groups of distinct atoms

 Group   1 Type P   : 14s9p3d1f contracted to 5s5p2d1f pattern {73211/51111/21/1}
 Group   2 Type H   : 5s1p contracted to 3s1p pattern {311/1}

Atom   0P    basis set group =>   1
Atom   1H    basis set group =>   2
Atom   2H    basis set group =>   2
Atom   3H    basis set group =>   2
---------------------------------
AUXILIARY/J BASIS SET INFORMATION
---------------------------------
There are 2 groups of distinct atoms

 Group   1 Type P   : 14s5p5d2f1g contracted to 8s4p3d1f1g pattern {71111111/2111/311/2/1}
 Group   2 Type H   : 5s2p1d contracted to 3s1p1d pattern {311/2/1}

Atom   0P    basis set group =>   1
Atom   1H    basis set group =>   2
Atom   2H    basis set group =>   2
Atom   3H    basis set group =>   2


           ************************************************************
           *        Program running with 6 parallel MPI-processes     *
           *              working on a common directory               *
           ************************************************************
------------------------------------------------------------------------------
                           ORCA GTO INTEGRAL CALCULATION
                           -- RI-GTO INTEGRALS CHOSEN --
------------------------------------------------------------------------------
------------------------------------------------------------------------------
                   ___                                                        
                  /   \      - P O W E R E D   B Y -                         
                 /     \                                                     
                 |  |  |   _    _      __       _____    __    __             
                 |  |  |  | |  | |    /  \     |  _  \  |  |  /  |          
                  \  \/   | |  | |   /    \    | | | |  |  | /  /          
                 / \  \   | |__| |  /  /\  \   | |_| |  |  |/  /          
                |  |  |   |  __  | /  /__\  \  |    /   |      \           
                |  |  |   | |  | | |   __   |  |    \   |  |\   \          
                \     /   | |  | | |  |  |  |  | |\  \  |  | \   \       
                 \___/    |_|  |_| |__|  |__|  |_| \__\ |__|  \__/        
                                                                              
                      - O R C A' S   B I G   F R I E N D -                    
                                      &                                       
                       - I N T E G R A L  F E E D E R -                       
                                                                              
 v1 FN, 2020, v2 2021                                                         
------------------------------------------------------------------------------


Reading SHARK input file phosphine_OPT.SHARKINP.tmp ... ok
----------------------
SHARK INTEGRAL PACKAGE
----------------------

Number of atoms                             ...      4
Number of basis functions                   ...     55
Number of shells                            ...     25
Maximum angular momentum                    ...      3
Integral batch strategy                     ... SHARK/LIBINT Hybrid
RI-J (if used) integral strategy            ... SPLIT-RIJ (Revised 2003 algorithm where possible)
Printlevel                                  ...      1
Contraction scheme used                     ... SEGMENTED contraction
Coulomb Range Separation                    ... NOT USED
Exchange Range Separation                   ... NOT USED
Finite Nucleus Model                        ... NOT USED
Auxiliary Coulomb fitting basis             ... AVAILABLE
   # of basis functions in Aux-J            ...     84
   # of shells in Aux-J                     ...     32
   Maximum angular momentum in Aux-J        ...      4
Auxiliary J/K fitting basis                 ... NOT available
Auxiliary Correlation fitting basis         ... NOT available
Auxiliary 'external' fitting basis          ... NOT available
Integral threshold                          ...     2.500000e-11
Primitive cut-off                           ...     2.500000e-12
Primitive pair pre-selection threshold      ...     2.500000e-12

Calculating pre-screening integrals         ... done (  0.0 sec) Dimension = 25
Organizing shell pair data                  ... done (  0.0 sec)
Shell pair information
Total number of shell pairs                 ...       325
Shell pairs after pre-screening             ...       325
Total number of primitive shell pairs       ...      1080
Primitive shell pairs kept                  ...      1026
          la=0 lb=0:    105 shell pairs
          la=1 lb=0:    112 shell pairs
          la=1 lb=1:     36 shell pairs
          la=2 lb=0:     28 shell pairs
          la=2 lb=1:     16 shell pairs
          la=2 lb=2:      3 shell pairs
          la=3 lb=0:     14 shell pairs
          la=3 lb=1:      8 shell pairs
          la=3 lb=2:      2 shell pairs
          la=3 lb=3:      1 shell pairs

Calculating one electron integrals          ... done (  0.0 sec)
Calculating RI/J V-Matrix + Cholesky decomp.... done (  0.0 sec)
Calculating Nuclear repulsion               ... done (  0.0 sec) ENN=     19.620908839203 Eh

SHARK setup successfully completed in   0.1 seconds

Maximum memory used throughout the entire GTOINT-calculation: 15.0 MB


           ************************************************************
           *        Program running with 6 parallel MPI-processes     *
           *              working on a common directory               *
           ************************************************************
-------------------------------------------------------------------------------
                                 ORCA SCF
-------------------------------------------------------------------------------

------------
SCF SETTINGS
------------
Hamiltonian:
 Density Functional     Method          .... DFT(GTOs)
 Exchange Functional    Exchange        .... PBE
   PBE kappa parameter   XKappa         ....  0.804000
   PBE mue parameter    XMuePBE         ....  0.219520
 Correlation Functional Correlation     .... PBE
   PBE beta parameter  CBetaPBE         ....  0.066725
 LDA part of GGA corr.  LDAOpt          .... PW91-LDA
 Gradients option       PostSCFGGA      .... off
 Hybrid DFT is turned on
   Fraction HF Exchange ScalHFX         ....  0.250000
   Scaling of DF-GGA-X  ScalDFX         ....  0.750000
   Scaling of DF-GGA-C  ScalDFC         ....  1.000000
   Scaling of DF-LDA-C  ScalLDAC        ....  1.000000
   Perturbative correction              ....  0.000000
   Density functional embedding theory  .... OFF
   NL short-range parameter             ....  6.900000
 RI-approximation to the Coulomb term is turned on
   Number of AuxJ basis functions       .... 84
   RIJ-COSX (HFX calculated with COS-X)).... on


General Settings:
 Integral files         IntName         .... phosphine_OPT
 Hartree-Fock type      HFTyp           .... RHF
 Total Charge           Charge          ....    0
 Multiplicity           Mult            ....    1
 Number of Electrons    NEL             ....   18
 Basis Dimension        Dim             ....   55
 Nuclear Repulsion      ENuc            ....     19.6209088392 Eh

Convergence Acceleration:
 DIIS                   CNVDIIS         .... on
   Start iteration      DIISMaxIt       ....    12
   Startup error        DIISStart       ....  0.200000
   # of expansion vecs  DIISMaxEq       ....     5
   Bias factor          DIISBfac        ....   1.050
   Max. coefficient     DIISMaxC        ....  10.000
 Trust-Rad. Augm. Hess. CNVTRAH         .... auto
   Auto Start mean grad. ratio tolernc. ....  1.125000
   Auto Start start iteration           ....    20
   Auto Start num. interpolation iter.  ....    10
   Max. Number of Micro iterations      ....    16
   Max. Number of Macro iterations      .... Maxiter - #DIIS iter
   Number of Davidson start vectors     ....     2
   Converg. threshold I  (grad. norm)   ....   1.000e-05
   Converg. threshold II (energy diff.) ....   1.000e-08
   Grad. Scal. Fac. for Micro threshold ....   0.100
   Minimum threshold for Micro iter.    ....   0.010
   NR start threshold (gradient norm)   ....   0.001
   Initial trust radius                 ....   0.400
   Minimum AH scaling param. (alpha)    ....   1.000
   Maximum AH scaling param. (alpha)    .... 1000.000
   Orbital update algorithm             .... Taylor
   White noise on init. David. guess    .... on
   Maximum white noise                  ....   0.010
   Quad. conv. algorithm                .... NR
 SOSCF                  CNVSOSCF        .... on
   Start iteration      SOSCFMaxIt      ....   150
   Startup grad/error   SOSCFStart      ....  0.003300
 Level Shifting         CNVShift        .... on
   Level shift para.    LevelShift      ....    0.2500
   Turn off err/grad.   ShiftErr        ....    0.0010
 Zerner damping         CNVZerner       .... off
 Static damping         CNVDamp         .... on
   Fraction old density DampFac         ....    0.7000
   Max. Damping (<1)    DampMax         ....    0.9800
   Min. Damping (>=0)   DampMin         ....    0.0000
   Turn off err/grad.   DampErr         ....    0.1000
 Fernandez-Rico         CNVRico         .... off

SCF Procedure:
 Maximum # iterations   MaxIter         ....   125
 SCF integral mode      SCFMode         .... Direct
   Integral package                     .... SHARK and LIBINT hybrid scheme
 Reset frequency        DirectResetFreq ....    20
 Integral Threshold     Thresh          ....  2.500e-11 Eh
 Primitive CutOff       TCut            ....  2.500e-12 Eh

Convergence Tolerance:
 Convergence Check Mode ConvCheckMode   .... Total+1el-Energy
 Convergence forced     ConvForced      .... 0
 Energy Change          TolE            ....  1.000e-08 Eh
 1-El. energy change                    ....  1.000e-05 Eh
 Orbital Gradient       TolG            ....  1.000e-05
 Orbital Rotation angle TolX            ....  1.000e-05
 DIIS Error             TolErr          ....  5.000e-07


Diagonalization of the overlap matrix:
Smallest eigenvalue                        ... 1.059e-02
Time for diagonalization                   ...    0.001 sec
Threshold for overlap eigenvalues          ... 1.000e-08
Number of eigenvalues below threshold      ... 0
Time for construction of square roots      ...    0.000 sec
Total time needed                          ...    0.001 sec

Time for model grid setup =    0.007 sec

------------------------------
INITIAL GUESS: MODEL POTENTIAL
------------------------------
Loading Hartree-Fock densities                     ... done
Calculating cut-offs                               ... done
Initializing the effective Hamiltonian             ... done
Setting up the integral package (SHARK)            ... done
Starting the Coulomb interaction                   ... done (   0.0 sec)
Reading the grid                                   ... done
Mapping shells                                     ... done
Starting the XC term evaluation                    ... done (   0.0 sec)
  promolecular density results
     # of electrons  =     17.998125624
     EX              =    -23.437965512
     EC              =     -0.649954596
     EX+EC           =    -24.087920108
Transforming the Hamiltonian                       ... done (   0.0 sec)
Diagonalizing the Hamiltonian                      ... done (   0.0 sec)
Back transforming the eigenvectors                 ... done (   0.0 sec)
Now organizing SCF variables                       ... done
                      ------------------
                      INITIAL GUESS DONE (   0.0 sec)
                      ------------------
-------------------
DFT GRID GENERATION
-------------------

General Integration Accuracy     IntAcc      ... 4.388
Radial Grid Type                 RadialGrid  ... OptM3 with GC (2021)
Angular Grid (max. ang.)         AngularGrid ... 4 (Lebedev-302)
Angular grid pruning method      GridPruning ... 4 (adaptive)
Weight generation scheme         WeightScheme... Becke
Basis function cutoff            BFCut       ... 1.0000e-11
Integration weight cutoff        WCut        ... 1.0000e-14
Angular grids for H and He will be reduced by one unit
Partially contracted basis set               ... off
Rotationally invariant grid construction     ... off

Total number of grid points                  ...    17253
Total number of batches                      ...      272
Average number of points per batch           ...       63
Average number of grid points per atom       ...     4313
Time for grid setup =    0.050 sec

--------------------
COSX GRID GENERATION
--------------------

GRIDX 1
-------
General Integration Accuracy     IntAcc      ... 3.816
Radial Grid Type                 RadialGrid  ... OptM3 with GC (2021)
Angular Grid (max. ang.)         AngularGrid ... 1 (Lebedev-50)
Angular grid pruning method      GridPruning ... 4 (adaptive)
Weight generation scheme         WeightScheme... Becke
Basis function cutoff            BFCut       ... 1.0000e-11
Integration weight cutoff        WCut        ... 1.0000e-14
Angular grids for H and He will be reduced by one unit
Partially contracted basis set               ... on
Rotationally invariant grid construction     ... off

Total number of grid points                  ...     2168
Total number of batches                      ...       35
Average number of points per batch           ...       61
Average number of grid points per atom       ...      542
UseSFitting                                  ... on

GRIDX 2
-------
General Integration Accuracy     IntAcc      ... 4.020
Radial Grid Type                 RadialGrid  ... OptM3 with GC (2021)
Angular Grid (max. ang.)         AngularGrid ... 2 (Lebedev-110)
Angular grid pruning method      GridPruning ... 4 (adaptive)
Weight generation scheme         WeightScheme... Becke
Basis function cutoff            BFCut       ... 1.0000e-11
Integration weight cutoff        WCut        ... 1.0000e-14
Angular grids for H and He will be reduced by one unit
Partially contracted basis set               ... on
Rotationally invariant grid construction     ... off

Total number of grid points                  ...     4394
Total number of batches                      ...       72
Average number of points per batch           ...       61
Average number of grid points per atom       ...     1098
UseSFitting                                  ... on

GRIDX 3
-------
General Integration Accuracy     IntAcc      ... 4.338
Radial Grid Type                 RadialGrid  ... OptM3 with GC (2021)
Angular Grid (max. ang.)         AngularGrid ... 3 (Lebedev-194)
Angular grid pruning method      GridPruning ... 4 (adaptive)
Weight generation scheme         WeightScheme... Becke
Basis function cutoff            BFCut       ... 1.0000e-11
Integration weight cutoff        WCut        ... 1.0000e-14
Angular grids for H and He will be reduced by one unit
Partially contracted basis set               ... on
Rotationally invariant grid construction     ... off

Total number of grid points                  ...    10300
Total number of batches                      ...      163
Average number of points per batch           ...       63
Average number of grid points per atom       ...     2575
UseSFitting                                  ... on

Time for X-Grid setup             =    0.031 sec

--------------
SCF ITERATIONS
--------------
ITER       Energy         Delta-E        Max-DP      RMS-DP      [F,P]     Damp
               ***  Starting incremental Fock matrix formation  ***
  0   -342.9594141775   0.000000000000 0.05700935  0.00152546  0.0719083 0.7000
  1   -342.9655204044  -0.006106226905 0.04271985  0.00123713  0.0478051 0.7000
                               ***Turning on DIIS***
  2   -342.9691423562  -0.003621951764 0.08250305  0.00258172  0.0279335 0.0000
  3   -342.9751946284  -0.006052272201 0.02884556  0.00080412  0.0149652 0.0000
                      *** Initiating the SOSCF procedure ***
                           *** Shutting down DIIS ***
                      *** Re-Reading the Fockian *** 
                      *** Removing any level shift *** 
ITER      Energy       Delta-E        Grad      Rot      Max-DP    RMS-DP
  4   -342.97585072  -0.0006560907  0.001522  0.001522  0.002384  0.000132
               *** Restarting incremental Fock matrix formation ***
  5   -342.97586903  -0.0000183155  0.000430  0.000834  0.001375  0.000070
  6   -342.97587018  -0.0000011437  0.000210  0.000183  0.000889  0.000023
  7   -342.97587061  -0.0000004322  0.000011  0.000020  0.000027  0.000002
  8   -342.97587061  -0.0000000028  0.000006  0.000010  0.000010  0.000000
                 **** Energy Check signals convergence ****
              ***Rediagonalizing the Fockian in SOSCF/NRSCF***

               *****************************************************
               *                     SUCCESS                       *
               *           SCF CONVERGED AFTER   9 CYCLES          *
               *****************************************************

Old exchange energy                            =     -5.947744032 Eh
New exchange energy                            =     -5.947755955 Eh
Exchange energy change after final integration =     -0.000011923 Eh
Total energy after final integration           =   -342.975882537 Eh
Final COS-X integration done in                =     0.072 sec

----------------
TOTAL SCF ENERGY
----------------

Total Energy       :         -342.97588254 Eh           -9332.84824 eV

Components:
Nuclear Repulsion  :           19.62090884 Eh             533.91207 eV
Electronic Energy  :         -362.59679138 Eh           -9866.76031 eV
One Electron Energy:         -512.73303012 Eh          -13952.17506 eV
Two Electron Energy:          150.13623875 Eh            4085.41475 eV
Max COSX asymmetry :            0.00000094 Eh               0.00003 eV

Virial components:
Potential Energy   :         -685.97227921 Eh          -18666.25469 eV
Kinetic Energy     :          342.99639667 Eh            9333.40645 eV
Virial Ratio       :            1.99994019


DFT components:
N(Alpha)           :        9.000000525710 electrons
N(Beta)            :        9.000000525710 electrons
N(Total)           :       18.000001051421 electrons
E(X)               :      -17.729746841871 Eh       
E(C)               :       -0.649013509576 Eh       
E(XC)              :      -18.378760351447 Eh       
DFET-embed. en.    :        0.000000000000 Eh       

---------------
SCF CONVERGENCE
---------------

  Last Energy change         ...   -7.3607e-10  Tolerance :   1.0000e-08
  Last MAX-Density change    ...    1.3323e-15  Tolerance :   1.0000e-07
  Last RMS-Density change    ...    4.9396e-17  Tolerance :   5.0000e-09
  Last Orbital Gradient      ...    1.3956e-06  Tolerance :   1.0000e-05
  Last Orbital Rotation      ...    1.8773e-06  Tolerance :   1.0000e-05

             **** THE GBW FILE WAS UPDATED (phosphine_OPT.gbw) ****
             **** DENSITY phosphine_OPT.scfp WAS UPDATED ****
             **** ENERGY FILE WAS UPDATED (phosphine_OPT.en.tmp) ****
             **** THE GBW FILE WAS UPDATED (phosphine_OPT.gbw) ****
             **** DENSITY phosphine_OPT.scfp WAS UPDATED ****
----------------
ORBITAL ENERGIES
----------------

  NO   OCC          E(Eh)            E(eV) 
   0   2.0000     -77.169221     -2099.8812 
   1   2.0000      -6.581113      -179.0812 
   2   2.0000      -4.715305      -128.3100 
   3   2.0000      -4.715300      -128.3098 
   4   2.0000      -4.713316      -128.2558 
   5   2.0000      -0.695307       -18.9203 
   6   2.0000      -0.439637       -11.9631 
   7   2.0000      -0.439632       -11.9630 
   8   2.0000      -0.257421        -7.0048 
   9   0.0000       0.055965         1.5229 
  10   0.0000       0.055970         1.5230 
  11   0.0000       0.060694         1.6516 
  12   0.0000       0.183833         5.0024 
  13   0.0000       0.183844         5.0026 
  14   0.0000       0.216321         5.8864 
  15   0.0000       0.253004         6.8846 
  16   0.0000       0.253010         6.8848 
  17   0.0000       0.258192         7.0258 
  18   0.0000       0.371749        10.1158 
  19   0.0000       0.371762        10.1162 
  20   0.0000       0.487222        13.2580 
  21   0.0000       0.562935        15.3182 
  22   0.0000       0.672938        18.3116 
  23   0.0000       0.672945        18.3118 
  24   0.0000       1.135637        30.9023 
  25   0.0000       1.178293        32.0630 
  26   0.0000       1.178296        32.0631 
  27   0.0000       1.208678        32.8898 
  28   0.0000       1.208693        32.8902 
  29   0.0000       1.224323        33.3155 
  30   0.0000       1.248171        33.9645 
  31   0.0000       1.248187        33.9649 
  32   0.0000       1.309697        35.6387 
  33   0.0000       1.435145        39.0523 
  34   0.0000       1.435158        39.0526 
  35   0.0000       1.443854        39.2893 
  36   0.0000       1.530824        41.6558 
  37   0.0000       1.662387        45.2358 
  38   0.0000       1.662416        45.2366 
  39   0.0000       1.991657        54.1958 
  40   0.0000       1.991669        54.1961 
  41   0.0000       1.994006        54.2597 
  42   0.0000       2.133462        58.0545 
  43   0.0000       2.183222        59.4085 
  44   0.0000       2.183240        59.4090 
  45   0.0000       2.699174        73.4482 
  46   0.0000       2.705418        73.6182 
  47   0.0000       2.705460        73.6193 
  48   0.0000       2.752491        74.8991 
  49   0.0000       2.990167        81.3666 
  50   0.0000       2.990179        81.3669 
  51   0.0000       7.344385       199.8509 
  52   0.0000       7.459265       202.9769 
  53   0.0000       7.459365       202.9797 
  54   0.0000      14.954491       406.9324 

                    ********************************
                    * MULLIKEN POPULATION ANALYSIS *
                    ********************************

-----------------------
MULLIKEN ATOMIC CHARGES
-----------------------
   0 P :   -0.235468
   1 H :    0.078480
   2 H :    0.078497
   3 H :    0.078491
Sum of atomic charges:    0.0000000

--------------------------------
MULLIKEN REDUCED ORBITAL CHARGES
--------------------------------
  0 P s       :     5.593579  s :     5.593579
      pz      :     3.406512  p :     9.484127
      px      :     2.997935
      py      :     3.079680
      dz2     :     0.046870  d :     0.148891
      dxz     :     0.010288
      dyz     :     0.017683
      dx2y2   :     0.062925
      dxy     :     0.011125
      f0      :     0.000190  f :     0.008871
      f+1     :     0.002263
      f-1     :     0.002723
      f+2     :     0.000093
      f-2     :     0.000559
      f+3     :     0.002365
      f-3     :     0.000677
  1 H s       :     0.903187  s :     0.903187
      pz      :     0.005001  p :     0.018333
      px      :     0.003739
      py      :     0.009592
  2 H s       :     0.903172  s :     0.903172
      pz      :     0.009521  p :     0.018331
      px      :     0.003739
      py      :     0.005071
  3 H s       :     0.903180  s :     0.903180
      pz      :     0.005001  p :     0.018329
      px      :     0.010055
      py      :     0.003273


                     *******************************
                     * LOEWDIN POPULATION ANALYSIS *
                     *******************************

----------------------
LOEWDIN ATOMIC CHARGES
----------------------
   0 P :    0.084564
   1 H :   -0.028186
   2 H :   -0.028189
   3 H :   -0.028189

-------------------------------
LOEWDIN REDUCED ORBITAL CHARGES
-------------------------------
  0 P s       :     5.083385  s :     5.083385
      pz      :     3.445976  p :     9.598109
      px      :     3.034963
      py      :     3.117170
      dz2     :     0.063362  d :     0.209524
      dxz     :     0.013455
      dyz     :     0.024220
      dx2y2   :     0.090696
      dxy     :     0.017790
      f0      :     0.001295  f :     0.024418
      f+1     :     0.005514
      f-1     :     0.006125
      f+2     :     0.000557
      f-2     :     0.001597
      f+3     :     0.006862
      f-3     :     0.002468
  1 H s       :     0.964694  s :     0.964694
      pz      :     0.016238  p :     0.063493
      px      :     0.010934
      py      :     0.036321
  2 H s       :     0.964697  s :     0.964697
      pz      :     0.037909  p :     0.063492
      px      :     0.010933
      py      :     0.014649
  3 H s       :     0.964696  s :     0.964696
      pz      :     0.016238  p :     0.063493
      px      :     0.037030
      py      :     0.010225


                      *****************************
                      * MAYER POPULATION ANALYSIS *
                      *****************************

  NA   - Mulliken gross atomic population
  ZA   - Total nuclear charge
  QA   - Mulliken gross atomic charge
  VA   - Mayer's total valence
  BVA  - Mayer's bonded valence
  FA   - Mayer's free valence

  ATOM       NA         ZA         QA         VA         BVA        FA
  0 P     15.2355    15.0000    -0.2355     2.9203     2.9203    -0.0000
  1 H      0.9215     1.0000     0.0785     0.9696     0.9696    -0.0000
  2 H      0.9215     1.0000     0.0785     0.9696     0.9696     0.0000
  3 H      0.9215     1.0000     0.0785     0.9695     0.9695    -0.0000

  Mayer bond orders larger than 0.100000
B(  0-P ,  1-H ) :   0.9734 B(  0-P ,  2-H ) :   0.9734 B(  0-P ,  3-H ) :   0.9734 


-------
TIMINGS
-------

Total SCF time: 0 days 0 hours 0 min 0 sec 

Total time                  ....       0.878 sec
Sum of individual times     ....       0.819 sec  ( 93.3%)

Fock matrix formation       ....       0.696 sec  ( 79.3%)
  Split-RI-J                ....       0.124 sec  ( 17.8% of F)
  Chain of spheres X        ....       0.453 sec  ( 65.0% of F)
  XC integration            ....       0.112 sec  ( 16.1% of F)
    Basis function eval.    ....       0.028 sec  ( 24.9% of XC)
    Density eval.           ....       0.016 sec  ( 14.5% of XC)
    XC-Functional eval.     ....       0.013 sec  ( 12.0% of XC)
    XC-Potential eval.      ....       0.017 sec  ( 14.8% of XC)
Diagonalization             ....       0.006 sec  (  0.7%)
Density matrix formation    ....       0.001 sec  (  0.1%)
Population analysis         ....       0.003 sec  (  0.4%)
Initial guess               ....       0.007 sec  (  0.8%)
Orbital Transformation      ....       0.000 sec  (  0.0%)
Orbital Orthonormalization  ....       0.000 sec  (  0.0%)
DIIS solution               ....       0.008 sec  (  0.9%)
SOSCF solution              ....       0.010 sec  (  1.1%)
Grid generation             ....       0.088 sec  ( 10.0%)

Maximum memory used throughout the entire SCF-calculation: 58.3 MB

-------------------------   --------------------
FINAL SINGLE POINT ENERGY      -342.975882536868
-------------------------   --------------------



           ************************************************************
           *        Program running with 6 parallel MPI-processes     *
           *              working on a common directory               *
           ************************************************************
------------------------------------------------------------------------------
                         ORCA SCF GRADIENT CALCULATION
------------------------------------------------------------------------------

 ... reading COSX grid (gridx3)
Gradient of the Kohn-Sham DFT energy:
Kohn-Sham wavefunction type      ... RKS
Hartree-Fock exchange scaling    ...    0.250
Number of operators              ...    1
Number of atoms                  ...    4
Basis set dimensions             ...   55
Integral neglect threshold       ... 2.5e-11
Integral primitive cutoff        ... 2.5e-12
SHARK Integral package           ... ON

Nuc. rep. gradient       (SHARK) ... done (  0.0 sec)
HCore & Overlap gradient (SHARK) ... done (  0.0 sec)
RI-J gradient            (SHARK) ... done (  0.1 sec)
COSX-gradient                    ... done (  0.1 sec)
Exchange-correlation gradient    ... done

------------------
CARTESIAN GRADIENT
------------------

   1   P   :    0.046088940    0.065279687   -0.113061225
   2   H   :    0.020482028   -0.085137967    0.015711161
   3   H   :    0.020467939    0.028952696    0.081588174
   4   H   :   -0.087092872   -0.009065650    0.015720816

Difference to translation invariance:
           :   -0.0000539655    0.0000287655   -0.0000410746

Difference to rotation invariance:
           :   -0.0000222424   -0.0000065355   -0.0000027259

Norm of the cartesian gradient     ...    0.2071512005
RMS gradient                       ...    0.0597994007
MAX gradient                       ...    0.1130612255

-------
TIMINGS
-------

Total SCF gradient time            ...        0.313 sec

One electron gradient       ....       0.004 sec  (  1.3%)
RI-J Coulomb gradient       ....       0.072 sec  ( 23.0%)
COSX gradient               ....       0.090 sec  ( 28.7%)
XC gradient                 ....       0.038 sec  ( 12.2%)

Maximum memory used throughout the entire SCFGRAD-calculation: 33.3 MB
------------------------------------------------------------------------------
                         ORCA GEOMETRY RELAXATION STEP
------------------------------------------------------------------------------

Reading the OPT-File                    .... done
Getting information on internals        .... done
Copying old internal coords+grads       .... done
Making the new internal coordinates     .... (new redundants).... done
Validating the new internal coordinates .... (new redundants).... done
Calculating the B-matrix                .... done
Calculating the G,G- and P matrices     .... done
Transforming gradient to internals      .... done
Projecting the internal gradient        .... done
Number of atoms                         ....   4
Number of internal coordinates          ....   7
Current Energy                          ....  -342.975882537 Eh
Current gradient norm                   ....     0.207151200 Eh/bohr
Maximum allowed component of the step   ....  0.300
Current trust radius                    ....  0.300
Evaluating the initial hessian          ....  (Almloef) done
Projecting the Hessian                  .... done
Forming the augmented Hessian           .... done
Diagonalizing the augmented Hessian     .... done
Last element of RFO vector              ....  0.969350496
Lowest eigenvalues of augmented Hessian:
 -0.037553874  0.167240474  0.415196424  0.415596309  0.636523007
Length of the computed step             ....  0.253450061
The final length of the internal step   ....  0.253450061
Converting the step to cartesian space:
 Initial RMS(Int)=    0.0957951188
Transforming coordinates:
 Iter   0:  RMS(Cart)=    0.0533942943 RMS(Int)=    0.0957889088
 Iter   1:  RMS(Cart)=    0.0018072880 RMS(Int)=    0.0022696382
 Iter   2:  RMS(Cart)=    0.0001059583 RMS(Int)=    0.0001293534
 Iter   3:  RMS(Cart)=    0.0000039091 RMS(Int)=    0.0000045746
 Iter   4:  RMS(Cart)=    0.0000002372 RMS(Int)=    0.0000002138
 Iter   5:  RMS(Cart)=    0.0000000164 RMS(Int)=    0.0000000149
done
Storing new coordinates                 .... done

                                .--------------------.
          ----------------------|Geometry convergence|-------------------------
          Item                value                   Tolerance       Converged
          ---------------------------------------------------------------------
          RMS gradient        0.0586683887            0.0000300000      NO
          MAX gradient        0.0883427675            0.0001000000      NO
          RMS step            0.0957951188            0.0006000000      NO
          MAX step            0.1310558802            0.0010000000      NO
          ........................................................
          Max(Bonds)      0.0694      Max(Angles)    2.65
          Max(Dihed)        0.00      Max(Improp)    4.84
          ---------------------------------------------------------------------

The optimization has not yet converged - more geometry cycles are needed


    ---------------------------------------------------------------------------
                         Redundant Internal Coordinates
                            (Angstroem and degrees)

        Definition                    Value    dE/dq     Step     New-Value
    ----------------------------------------------------------------------------
     1. B(H   1,P   0)                1.2649 -0.088343  0.0694    1.3343   
     2. B(H   2,P   0)                1.2649 -0.088330  0.0693    1.3343   
     3. B(H   3,P   0)                1.2649 -0.088309  0.0693    1.3343   
     4. A(H   1,P   0,H   3)          104.16  0.007153   -2.38    101.77   
     5. A(H   2,P   0,H   3)          104.16  0.017122   -2.65    101.51   
     6. A(H   1,P   0,H   2)          104.16  0.007199   -2.39    101.77   
     7. I(H   1,H   3,H   2,P   0)     66.55 -0.017107    4.84     71.39   
    ----------------------------------------------------------------------------

         *************************************************************
         *                GEOMETRY OPTIMIZATION CYCLE   2            *
         *************************************************************
---------------------------------
CARTESIAN COORDINATES (ANGSTROEM)
---------------------------------
  P     -0.048302   -0.067128    0.117688
  H     -0.413082    1.208562   -0.023282
  H     -0.411230   -0.583753   -1.057767
  H      1.275943    0.012709   -0.024609

----------------------------
CARTESIAN COORDINATES (A.U.)
----------------------------
  NO LB      ZA    FRAG     MASS         X           Y           Z
   0 P    15.0000    0    30.974   -0.091278   -0.126853    0.222398
   1 H     1.0000    0     1.008   -0.780611    2.283851   -0.043996
   2 H     1.0000    0     1.008   -0.777111   -1.103133   -1.998890
   3 H     1.0000    0     1.008    2.411184    0.024016   -0.046504

--------------------------------
INTERNAL COORDINATES (ANGSTROEM)
--------------------------------
 P      0   0   0     0.000000000000     0.00000000     0.00000000
 H      1   0   0     1.334286768922     0.00000000     0.00000000
 H      1   2   0     1.334283172097   101.69787008     0.00000000
 H      1   2   3     1.334259463871   101.70434115   104.51381068

---------------------------
INTERNAL COORDINATES (A.U.)
---------------------------
 P      0   0   0     0.000000000000     0.00000000     0.00000000
 H      1   0   0     2.521436577377     0.00000000     0.00000000
 H      1   2   0     2.521429780364   101.69787008     0.00000000
 H      1   2   3     2.521384978309   101.70434115   104.51381068



           ************************************************************
           *        Program running with 6 parallel MPI-processes     *
           *              working on a common directory               *
           ************************************************************
------------------------------------------------------------------------------
                   ___                                                        
                  /   \      - P O W E R E D   B Y -                         
                 /     \                                                     
                 |  |  |   _    _      __       _____    __    __             
                 |  |  |  | |  | |    /  \     |  _  \  |  |  /  |          
                  \  \/   | |  | |   /    \    | | | |  |  | /  /          
                 / \  \   | |__| |  /  /\  \   | |_| |  |  |/  /          
                |  |  |   |  __  | /  /__\  \  |    /   |      \           
                |  |  |   | |  | | |   __   |  |    \   |  |\   \          
                \     /   | |  | | |  |  |  |  | |\  \  |  | \   \       
                 \___/    |_|  |_| |__|  |__|  |_| \__\ |__|  \__/        
                                                                              
                      - O R C A' S   B I G   F R I E N D -                    
                                      &                                       
                       - I N T E G R A L  F E E D E R -                       
                                                                              
 v1 FN, 2020, v2 2021                                                         
------------------------------------------------------------------------------


Reading SHARK input file phosphine_OPT.SHARKINP.tmp ... ok
----------------------
SHARK INTEGRAL PACKAGE
----------------------

Number of atoms                             ...      4
Number of basis functions                   ...     55
Number of shells                            ...     25
Maximum angular momentum                    ...      3
Integral batch strategy                     ... SHARK/LIBINT Hybrid
RI-J (if used) integral strategy            ... SPLIT-RIJ (Revised 2003 algorithm where possible)
Printlevel                                  ...      1
Contraction scheme used                     ... SEGMENTED contraction
Coulomb Range Separation                    ... NOT USED
Exchange Range Separation                   ... NOT USED
Finite Nucleus Model                        ... NOT USED
Auxiliary Coulomb fitting basis             ... AVAILABLE
   # of basis functions in Aux-J            ...     84
   # of shells in Aux-J                     ...     32
   Maximum angular momentum in Aux-J        ...      4
Auxiliary J/K fitting basis                 ... NOT available
Auxiliary Correlation fitting basis         ... NOT available
Auxiliary 'external' fitting basis          ... NOT available
Integral threshold                          ...     2.500000e-11
Primitive cut-off                           ...     2.500000e-12
Primitive pair pre-selection threshold      ...     2.500000e-12

Calculating pre-screening integrals         ... done (  0.0 sec) Dimension = 25
Organizing shell pair data                  ... done (  0.0 sec)
Shell pair information
Total number of shell pairs                 ...       325
Shell pairs after pre-screening             ...       325
Total number of primitive shell pairs       ...      1080
Primitive shell pairs kept                  ...      1002
          la=0 lb=0:    105 shell pairs
          la=1 lb=0:    112 shell pairs
          la=1 lb=1:     36 shell pairs
          la=2 lb=0:     28 shell pairs
          la=2 lb=1:     16 shell pairs
          la=2 lb=2:      3 shell pairs
          la=3 lb=0:     14 shell pairs
          la=3 lb=1:      8 shell pairs
          la=3 lb=2:      2 shell pairs
          la=3 lb=3:      1 shell pairs

Calculating one electron integrals          ... done (  0.0 sec)
Calculating RI/J V-Matrix + Cholesky decomp.... done (  0.0 sec)
Calculating Nuclear repulsion               ... done (  0.0 sec) ENN=     18.614614202886 Eh

SHARK setup successfully completed in   0.1 seconds

Maximum memory used throughout the entire GTOINT-calculation: 15.0 MB


           ************************************************************
           *        Program running with 6 parallel MPI-processes     *
           *              working on a common directory               *
           ************************************************************

Diagonalization of the overlap matrix:
Smallest eigenvalue                        ... 1.238e-02
Time for diagonalization                   ...    0.001 sec
Threshold for overlap eigenvalues          ... 1.000e-08
Number of eigenvalues below threshold      ... 0
Time for construction of square roots      ...    0.000 sec
Total time needed                          ...    0.001 sec

-------------------
DFT GRID GENERATION
-------------------

General Integration Accuracy     IntAcc      ... 4.388
Radial Grid Type                 RadialGrid  ... OptM3 with GC (2021)
Angular Grid (max. ang.)         AngularGrid ... 4 (Lebedev-302)
Angular grid pruning method      GridPruning ... 4 (adaptive)
Weight generation scheme         WeightScheme... Becke
Basis function cutoff            BFCut       ... 1.0000e-11
Integration weight cutoff        WCut        ... 1.0000e-14
Angular grids for H and He will be reduced by one unit
Partially contracted basis set               ... off
Rotationally invariant grid construction     ... off

Total number of grid points                  ...    17275
Total number of batches                      ...      272
Average number of points per batch           ...       63
Average number of grid points per atom       ...     4319
Time for grid setup =    0.052 sec

--------------------
COSX GRID GENERATION
--------------------

GRIDX 1
-------
General Integration Accuracy     IntAcc      ... 3.816
Radial Grid Type                 RadialGrid  ... OptM3 with GC (2021)
Angular Grid (max. ang.)         AngularGrid ... 1 (Lebedev-50)
Angular grid pruning method      GridPruning ... 4 (adaptive)
Weight generation scheme         WeightScheme... Becke
Basis function cutoff            BFCut       ... 1.0000e-11
Integration weight cutoff        WCut        ... 1.0000e-14
Angular grids for H and He will be reduced by one unit
Partially contracted basis set               ... on
Rotationally invariant grid construction     ... off

Total number of grid points                  ...     2172
Total number of batches                      ...       36
Average number of points per batch           ...       60
Average number of grid points per atom       ...      543
UseSFitting                                  ... on

GRIDX 2
-------
General Integration Accuracy     IntAcc      ... 4.020
Radial Grid Type                 RadialGrid  ... OptM3 with GC (2021)
Angular Grid (max. ang.)         AngularGrid ... 2 (Lebedev-110)
Angular grid pruning method      GridPruning ... 4 (adaptive)
Weight generation scheme         WeightScheme... Becke
Basis function cutoff            BFCut       ... 1.0000e-11
Integration weight cutoff        WCut        ... 1.0000e-14
Angular grids for H and He will be reduced by one unit
Partially contracted basis set               ... on
Rotationally invariant grid construction     ... off

Total number of grid points                  ...     4401
Total number of batches                      ...       71
Average number of points per batch           ...       61
Average number of grid points per atom       ...     1100
UseSFitting                                  ... on

GRIDX 3
-------
General Integration Accuracy     IntAcc      ... 4.338
Radial Grid Type                 RadialGrid  ... OptM3 with GC (2021)
Angular Grid (max. ang.)         AngularGrid ... 3 (Lebedev-194)
Angular grid pruning method      GridPruning ... 4 (adaptive)
Weight generation scheme         WeightScheme... Becke
Basis function cutoff            BFCut       ... 1.0000e-11
Integration weight cutoff        WCut        ... 1.0000e-14
Angular grids for H and He will be reduced by one unit
Partially contracted basis set               ... on
Rotationally invariant grid construction     ... off

Total number of grid points                  ...    10321
Total number of batches                      ...      163
Average number of points per batch           ...       63
Average number of grid points per atom       ...     2580
UseSFitting                                  ... on

Time for X-Grid setup             =    0.030 sec

--------------
SCF ITERATIONS
--------------
ITER       Energy         Delta-E        Max-DP      RMS-DP      [F,P]     Damp
               ***  Starting incremental Fock matrix formation  ***
  0   -343.0009892340   0.000000000000 0.00689710  0.00031793  0.0245746 0.7000
                      *** Initiating the SOSCF procedure ***
                      *** Re-Reading the Fockian *** 
                      *** Removing any level shift *** 
ITER      Energy       Delta-E        Grad      Rot      Max-DP    RMS-DP
  1   -343.00162759  -0.0006383547  0.002289  0.002289  0.023113  0.001031
               *** Restarting incremental Fock matrix formation ***
  2   -343.00313693  -0.0015093383  0.001980  0.004537  0.014578  0.000515
  3   -343.00318966  -0.0000527307  0.000878  0.001484  0.004978  0.000160
  4   -343.00319954  -0.0000098783  0.000249  0.000204  0.000560  0.000022
  5   -343.00319974  -0.0000002073  0.000069  0.000076  0.000041  0.000003
  6   -343.00319977  -0.0000000255  0.000015  0.000023  0.000044  0.000002
  7   -343.00319977  -0.0000000009  0.000007  0.000002  0.000004  0.000000
                 **** Energy Check signals convergence ****
              ***Rediagonalizing the Fockian in SOSCF/NRSCF***

               *****************************************************
               *                     SUCCESS                       *
               *           SCF CONVERGED AFTER   8 CYCLES          *
               *****************************************************

Old exchange energy                            =     -5.931129699 Eh
New exchange energy                            =     -5.931140745 Eh
Exchange energy change after final integration =     -0.000011045 Eh
Total energy after final integration           =   -343.003210815 Eh
Final COS-X integration done in                =     0.065 sec
Total Energy       :         -343.00321082 Eh           -9333.59188 eV
  Last Energy change         ...   -1.1482e-10  Tolerance :   1.0000e-08
  Last MAX-Density change    ...    3.1086e-15  Tolerance :   1.0000e-07
             **** THE GBW FILE WAS UPDATED (phosphine_OPT.gbw) ****
             **** DENSITY phosphine_OPT.scfp WAS UPDATED ****
             **** ENERGY FILE WAS UPDATED (phosphine_OPT.en.tmp) ****
             **** THE GBW FILE WAS UPDATED (phosphine_OPT.gbw) ****
             **** DENSITY phosphine_OPT.scfp WAS UPDATED ****
Total SCF time: 0 days 0 hours 0 min 0 sec 

Maximum memory used throughout the entire SCF-calculation: 58.3 MB

-------------------------   --------------------
FINAL SINGLE POINT ENERGY      -343.003210815040
-------------------------   --------------------



           ************************************************************
           *        Program running with 6 parallel MPI-processes     *
           *              working on a common directory               *
           ************************************************************
------------------------------------------------------------------------------
                         ORCA SCF GRADIENT CALCULATION
------------------------------------------------------------------------------

 ... reading COSX grid (gridx3)
Gradient of the Kohn-Sham DFT energy:
Kohn-Sham wavefunction type      ... RKS
Hartree-Fock exchange scaling    ...    0.250
Number of operators              ...    1
Number of atoms                  ...    4
Basis set dimensions             ...   55
Integral neglect threshold       ... 2.5e-11
Integral primitive cutoff        ... 2.5e-12
SHARK Integral package           ... ON

Nuc. rep. gradient       (SHARK) ... done (  0.0 sec)
HCore & Overlap gradient (SHARK) ... done (  0.0 sec)
RI-J gradient            (SHARK) ... done (  0.0 sec)
COSX-gradient                    ... done (  0.1 sec)
Exchange-correlation gradient    ... done

------------------
CARTESIAN GRADIENT
------------------

   1   P   :    0.025710149    0.036554859   -0.063139541
   2   H   :    0.006237119   -0.038440700    0.012007594
   3   H   :    0.006395710    0.008853393    0.039240482
   4   H   :   -0.038364789   -0.006965723    0.011842601

Difference to translation invariance:
           :   -0.0000218112    0.0000018297   -0.0000488642

Difference to rotation invariance:
           :   -0.0000179753   -0.0000071499   -0.0000116311

Norm of the cartesian gradient     ...    0.1047108928
RMS gradient                       ...    0.0302274311
MAX gradient                       ...    0.0631395408

-------
TIMINGS
-------

Total SCF gradient time            ...        0.257 sec

One electron gradient       ....       0.002 sec  (  0.8%)
RI-J Coulomb gradient       ....       0.043 sec  ( 16.9%)
COSX gradient               ....       0.080 sec  ( 31.0%)
XC gradient                 ....       0.029 sec  ( 11.2%)

Maximum memory used throughout the entire SCFGRAD-calculation: 33.3 MB
------------------------------------------------------------------------------
                         ORCA GEOMETRY RELAXATION STEP
------------------------------------------------------------------------------

Reading the OPT-File                    .... done
Getting information on internals        .... done
Copying old internal coords+grads       .... done
Making the new internal coordinates     .... (new redundants).... done
Validating the new internal coordinates .... (new redundants).... done
Calculating the B-matrix                .... done
Calculating the G,G- and P matrices     .... done
Transforming gradient to internals      .... done
Projecting the internal gradient        .... done
Number of atoms                         ....   4
Number of internal coordinates          ....   7
Current Energy                          ....  -343.003210815 Eh
Current gradient norm                   ....     0.104710893 Eh/bohr
Maximum allowed component of the step   ....  0.300
Current trust radius                    ....  0.300
Updating the Hessian (BFGS)             .... done
Forming the augmented Hessian           .... done
Diagonalizing the augmented Hessian     .... done
Last element of RFO vector              ....  0.964711230
Lowest eigenvalues of augmented Hessian:
 -0.017651387  0.148406555  0.378635065  0.415196427  0.464280437
Length of the computed step             ....  0.272941951
The final length of the internal step   ....  0.272941951
Converting the step to cartesian space:
 Initial RMS(Int)=    0.1031623606
Transforming coordinates:
 Iter   0:  RMS(Cart)=    0.0500835398 RMS(Int)=    0.1034047436
 Iter   1:  RMS(Cart)=    0.0035314008 RMS(Int)=    0.0040887579
 Iter   2:  RMS(Cart)=    0.0001816125 RMS(Int)=    0.0002563352
 Iter   3:  RMS(Cart)=    0.0000127764 RMS(Int)=    0.0000129091
 Iter   4:  RMS(Cart)=    0.0000010061 RMS(Int)=    0.0000012173
 Iter   5:  RMS(Cart)=    0.0000000241 RMS(Int)=    0.0000000501
done
Storing new coordinates                 .... done

                                .--------------------.
          ----------------------|Geometry convergence|-------------------------
          Item                value                   Tolerance       Converged
          ---------------------------------------------------------------------
          Energy change      -0.0273282782            0.0000010000      NO
          RMS gradient        0.0274510626            0.0000300000      NO
          MAX gradient        0.0397500635            0.0001000000      NO
          RMS step            0.1031623606            0.0006000000      NO
          MAX step            0.1417806464            0.0010000000      NO
          ........................................................
          Max(Bonds)      0.0596      Max(Angles)    4.48
          Max(Dihed)        0.00      Max(Improp)    8.12
          ---------------------------------------------------------------------

The optimization has not yet converged - more geometry cycles are needed


    ---------------------------------------------------------------------------
                         Redundant Internal Coordinates
                            (Angstroem and degrees)

        Definition                    Value    dE/dq     Step     New-Value
    ----------------------------------------------------------------------------
     1. B(H   1,P   0)                1.3343 -0.039731  0.0595    1.3938   
     2. B(H   2,P   0)                1.3343 -0.039750  0.0596    1.3939   
     3. B(H   3,P   0)                1.3343 -0.039750  0.0596    1.3938   
     4. A(H   1,P   0,H   3)          101.70  0.006916   -4.11     97.60   
     5. A(H   2,P   0,H   3)          101.49  0.015198   -4.48     97.01   
     6. A(H   1,P   0,H   2)          101.70  0.006942   -4.11     97.58   
     7. I(H   1,H   3,H   2,P   0)     71.31 -0.014465    8.12     79.43   
    ----------------------------------------------------------------------------

         *************************************************************
         *                GEOMETRY OPTIMIZATION CYCLE   3            *
         *************************************************************
---------------------------------
CARTESIAN COORDINATES (ANGSTROEM)
---------------------------------
  P     -0.074130   -0.102846    0.180537
  H     -0.410859    1.231548   -0.040270
  H     -0.407748   -0.580296   -1.085781
  H      1.296068    0.021984   -0.042456

----------------------------
CARTESIAN COORDINATES (A.U.)
----------------------------
  NO LB      ZA    FRAG     MASS         X           Y           Z
   0 P    15.0000    0    30.974   -0.140086   -0.194350    0.341165
   1 H     1.0000    0     1.008   -0.776412    2.327289   -0.076099
   2 H     1.0000    0     1.008   -0.770532   -1.096601   -2.051829
   3 H     1.0000    0     1.008    2.449213    0.041543   -0.080230

--------------------------------
INTERNAL COORDINATES (ANGSTROEM)
--------------------------------
 P      0   0   0     0.000000000000     0.00000000     0.00000000
 H      1   0   0     1.393825280251     0.00000000     0.00000000
 H      1   2   0     1.393851089743    97.24939754     0.00000000
 H      1   2   3     1.393825975362    97.26196842    97.97763354

---------------------------
INTERNAL COORDINATES (A.U.)
---------------------------
 P      0   0   0     0.000000000000     0.00000000     0.00000000
 H      1   0   0     2.633948058211     0.00000000     0.00000000
 H      1   2   0     2.633996831082    97.24939754     0.00000000
 H      1   2   3     2.633949371780    97.26196842    97.97763354



           ************************************************************
           *        Program running with 6 parallel MPI-processes     *
           *              working on a common directory               *
           ************************************************************
------------------------------------------------------------------------------
                   ___                                                        
                  /   \      - P O W E R E D   B Y -                         
                 /     \                                                     
                 |  |  |   _    _      __       _____    __    __             
                 |  |  |  | |  | |    /  \     |  _  \  |  |  /  |          
                  \  \/   | |  | |   /    \    | | | |  |  | /  /          
                 / \  \   | |__| |  /  /\  \   | |_| |  |  |/  /          
                |  |  |   |  __  | /  /__\  \  |    /   |      \           
                |  |  |   | |  | | |   __   |  |    \   |  |\   \          
                \     /   | |  | | |  |  |  |  | |\  \  |  | \   \       
                 \___/    |_|  |_| |__|  |__|  |_| \__\ |__|  \__/        
                                                                              
                      - O R C A' S   B I G   F R I E N D -                    
                                      &                                       
                       - I N T E G R A L  F E E D E R -                       
                                                                              
 v1 FN, 2020, v2 2021                                                         
------------------------------------------------------------------------------


Reading SHARK input file phosphine_OPT.SHARKINP.tmp ... ok
----------------------
SHARK INTEGRAL PACKAGE
----------------------

Number of atoms                             ...      4
Number of basis functions                   ...     55
Number of shells                            ...     25
Maximum angular momentum                    ...      3
Integral batch strategy                     ... SHARK/LIBINT Hybrid
RI-J (if used) integral strategy            ... SPLIT-RIJ (Revised 2003 algorithm where possible)
Printlevel                                  ...      1
Contraction scheme used                     ... SEGMENTED contraction
Coulomb Range Separation                    ... NOT USED
Exchange Range Separation                   ... NOT USED
Finite Nucleus Model                        ... NOT USED
Auxiliary Coulomb fitting basis             ... AVAILABLE
   # of basis functions in Aux-J            ...     84
   # of shells in Aux-J                     ...     32
   Maximum angular momentum in Aux-J        ...      4
Auxiliary J/K fitting basis                 ... NOT available
Auxiliary Correlation fitting basis         ... NOT available
Auxiliary 'external' fitting basis          ... NOT available
Integral threshold                          ...     2.500000e-11
Primitive cut-off                           ...     2.500000e-12
Primitive pair pre-selection threshold      ...     2.500000e-12

Calculating pre-screening integrals         ... done (  0.0 sec) Dimension = 25
Organizing shell pair data                  ... done (  0.0 sec)
Shell pair information
Total number of shell pairs                 ...       325
Shell pairs after pre-screening             ...       325
Total number of primitive shell pairs       ...      1080
Primitive shell pairs kept                  ...       993
          la=0 lb=0:    105 shell pairs
          la=1 lb=0:    112 shell pairs
          la=1 lb=1:     36 shell pairs
          la=2 lb=0:     28 shell pairs
          la=2 lb=1:     16 shell pairs
          la=2 lb=2:      3 shell pairs
          la=3 lb=0:     14 shell pairs
          la=3 lb=1:      8 shell pairs
          la=3 lb=2:      2 shell pairs
          la=3 lb=3:      1 shell pairs

Calculating one electron integrals          ... done (  0.0 sec)
Calculating RI/J V-Matrix + Cholesky decomp.... done (  0.0 sec)
Calculating Nuclear repulsion               ... done (  0.0 sec) ENN=     17.844025004841 Eh

SHARK setup successfully completed in   0.1 seconds

Maximum memory used throughout the entire GTOINT-calculation: 15.0 MB


           ************************************************************
           *        Program running with 6 parallel MPI-processes     *
           *              working on a common directory               *
           ************************************************************

Diagonalization of the overlap matrix:
Smallest eigenvalue                        ... 1.346e-02
Time for diagonalization                   ...    0.001 sec
Threshold for overlap eigenvalues          ... 1.000e-08
Number of eigenvalues below threshold      ... 0
Time for construction of square roots      ...    0.000 sec
Total time needed                          ...    0.001 sec

-------------------
DFT GRID GENERATION
-------------------

General Integration Accuracy     IntAcc      ... 4.388
Radial Grid Type                 RadialGrid  ... OptM3 with GC (2021)
Angular Grid (max. ang.)         AngularGrid ... 4 (Lebedev-302)
Angular grid pruning method      GridPruning ... 4 (adaptive)
Weight generation scheme         WeightScheme... Becke
Basis function cutoff            BFCut       ... 1.0000e-11
Integration weight cutoff        WCut        ... 1.0000e-14
Angular grids for H and He will be reduced by one unit
Partially contracted basis set               ... off
Rotationally invariant grid construction     ... off

Total number of grid points                  ...    17285
Total number of batches                      ...      272
Average number of points per batch           ...       63
Average number of grid points per atom       ...     4321
Time for grid setup =    0.055 sec

--------------------
COSX GRID GENERATION
--------------------

GRIDX 1
-------
General Integration Accuracy     IntAcc      ... 3.816
Radial Grid Type                 RadialGrid  ... OptM3 with GC (2021)
Angular Grid (max. ang.)         AngularGrid ... 1 (Lebedev-50)
Angular grid pruning method      GridPruning ... 4 (adaptive)
Weight generation scheme         WeightScheme... Becke
Basis function cutoff            BFCut       ... 1.0000e-11
Integration weight cutoff        WCut        ... 1.0000e-14
Angular grids for H and He will be reduced by one unit
Partially contracted basis set               ... on
Rotationally invariant grid construction     ... off

Total number of grid points                  ...     2173
Total number of batches                      ...       35
Average number of points per batch           ...       62
Average number of grid points per atom       ...      543
UseSFitting                                  ... on

GRIDX 2
-------
General Integration Accuracy     IntAcc      ... 4.020
Radial Grid Type                 RadialGrid  ... OptM3 with GC (2021)
Angular Grid (max. ang.)         AngularGrid ... 2 (Lebedev-110)
Angular grid pruning method      GridPruning ... 4 (adaptive)
Weight generation scheme         WeightScheme... Becke
Basis function cutoff            BFCut       ... 1.0000e-11
Integration weight cutoff        WCut        ... 1.0000e-14
Angular grids for H and He will be reduced by one unit
Partially contracted basis set               ... on
Rotationally invariant grid construction     ... off

Total number of grid points                  ...     4399
Total number of batches                      ...       71
Average number of points per batch           ...       61
Average number of grid points per atom       ...     1100
UseSFitting                                  ... on

GRIDX 3
-------
General Integration Accuracy     IntAcc      ... 4.338
Radial Grid Type                 RadialGrid  ... OptM3 with GC (2021)
Angular Grid (max. ang.)         AngularGrid ... 3 (Lebedev-194)
Angular grid pruning method      GridPruning ... 4 (adaptive)
Weight generation scheme         WeightScheme... Becke
Basis function cutoff            BFCut       ... 1.0000e-11
Integration weight cutoff        WCut        ... 1.0000e-14
Angular grids for H and He will be reduced by one unit
Partially contracted basis set               ... on
Rotationally invariant grid construction     ... off

Total number of grid points                  ...    10309
Total number of batches                      ...      162
Average number of points per batch           ...       63
Average number of grid points per atom       ...     2577
UseSFitting                                  ... on

Time for X-Grid setup             =    0.035 sec

--------------
SCF ITERATIONS
--------------
ITER       Energy         Delta-E        Max-DP      RMS-DP      [F,P]     Damp
               ***  Starting incremental Fock matrix formation  ***
  0   -343.0123936564   0.000000000000 0.00593742  0.00030355  0.0201161 0.7000
                      *** Initiating the SOSCF procedure ***
                      *** Re-Reading the Fockian *** 
                      *** Removing any level shift *** 
ITER      Energy       Delta-E        Grad      Rot      Max-DP    RMS-DP
  1   -343.01300191  -0.0006082534  0.002383  0.002383  0.020457  0.001012
               *** Restarting incremental Fock matrix formation ***
  2   -343.01453952  -0.0015376107  0.001745  0.004532  0.013622  0.000492
  3   -343.01459247  -0.0000529480  0.000680  0.001629  0.004910  0.000159
  4   -343.01459884  -0.0000063756  0.000290  0.000417  0.001073  0.000039
  5   -343.01459950  -0.0000006561  0.000042  0.000076  0.000071  0.000005
  6   -343.01459952  -0.0000000215  0.000019  0.000029  0.000064  0.000003
  7   -343.01459953  -0.0000000045  0.000004  0.000001  0.000002  0.000000
                 **** Energy Check signals convergence ****
              ***Rediagonalizing the Fockian in SOSCF/NRSCF***

               *****************************************************
               *                     SUCCESS                       *
               *           SCF CONVERGED AFTER   8 CYCLES          *
               *****************************************************

Old exchange energy                            =     -5.917935817 Eh
New exchange energy                            =     -5.917945593 Eh
Exchange energy change after final integration =     -0.000009776 Eh
Total energy after final integration           =   -343.014609302 Eh
Final COS-X integration done in                =     0.067 sec
Total Energy       :         -343.01460930 Eh           -9333.90205 eV
  Last Energy change         ...    5.4609e-10  Tolerance :   1.0000e-08
  Last MAX-Density change    ...    1.7764e-15  Tolerance :   1.0000e-07
             **** THE GBW FILE WAS UPDATED (phosphine_OPT.gbw) ****
             **** DENSITY phosphine_OPT.scfp WAS UPDATED ****
             **** ENERGY FILE WAS UPDATED (phosphine_OPT.en.tmp) ****
             **** THE GBW FILE WAS UPDATED (phosphine_OPT.gbw) ****
             **** DENSITY phosphine_OPT.scfp WAS UPDATED ****
Total SCF time: 0 days 0 hours 0 min 0 sec 

Maximum memory used throughout the entire SCF-calculation: 58.3 MB

-------------------------   --------------------
FINAL SINGLE POINT ENERGY      -343.014609302167
-------------------------   --------------------



           ************************************************************
           *        Program running with 6 parallel MPI-processes     *
           *              working on a common directory               *
           ************************************************************
------------------------------------------------------------------------------
                         ORCA SCF GRADIENT CALCULATION
------------------------------------------------------------------------------

 ... reading COSX grid (gridx3)
Gradient of the Kohn-Sham DFT energy:
[...]
      pz      :     0.008757  p :     0.014489
      px      :     0.002615
      py      :     0.003117
  3 H s       :     0.899793  s :     0.899793
      pz      :     0.003459  p :     0.014488
      px      :     0.008467
      py      :     0.002561


                     *******************************
                     * LOEWDIN POPULATION ANALYSIS *
                     *******************************

----------------------
LOEWDIN ATOMIC CHARGES
----------------------
   0 P :   -0.011869
   1 H :    0.003970
   2 H :    0.003948
   3 H :    0.003951

-------------------------------
LOEWDIN REDUCED ORBITAL CHARGES
-------------------------------
  0 P s       :     5.322123  s :     5.322123
      pz      :     3.336928  p :     9.456514
      px      :     3.029054
      py      :     3.090532
      dz2     :     0.072897  d :     0.210654
      dxz     :     0.018189
      dyz     :     0.024985
      dx2y2   :     0.083216
      dxy     :     0.011368
      f0      :     0.004450  f :     0.022578
      f+1     :     0.003180
      f-1     :     0.004133
      f+2     :     0.002124
      f-2     :     0.000717
      f+3     :     0.004575
      f-3     :     0.003399
  1 H s       :     0.948938  s :     0.948938
      pz      :     0.010729  p :     0.047092
      px      :     0.006883
      py      :     0.029481
  2 H s       :     0.948953  s :     0.948953
      pz      :     0.031912  p :     0.047099
      px      :     0.006884
      py      :     0.008304
  3 H s       :     0.948951  s :     0.948951
      pz      :     0.010729  p :     0.047097
      px      :     0.029150
      py      :     0.007218


                      *****************************
                      * MAYER POPULATION ANALYSIS *
                      *****************************

  NA   - Mulliken gross atomic population
  ZA   - Total nuclear charge
  QA   - Mulliken gross atomic charge
  VA   - Mayer's total valence
  BVA  - Mayer's bonded valence
  FA   - Mayer's free valence

  ATOM       NA         ZA         QA         VA         BVA        FA
  0 P     15.2572    15.0000    -0.2572     2.9143     2.9143     0.0000
  1 H      0.9142     1.0000     0.0858     0.9628     0.9628     0.0000
  2 H      0.9143     1.0000     0.0857     0.9628     0.9628    -0.0000
  3 H      0.9143     1.0000     0.0857     0.9628     0.9628    -0.0000

  Mayer bond orders larger than 0.100000
B(  0-P ,  1-H ) :   0.9714 B(  0-P ,  2-H ) :   0.9714 B(  0-P ,  3-H ) :   0.9714 


-------
TIMINGS
-------

Total SCF time: 0 days 0 hours 0 min 0 sec 

Total time                  ....       0.383 sec
Sum of individual times     ....       0.337 sec  ( 87.9%)

Fock matrix formation       ....       0.239 sec  ( 62.5%)
  Split-RI-J                ....       0.083 sec  ( 34.5% of F)
  Chain of spheres X        ....       0.139 sec  ( 57.9% of F)
  XC integration            ....       0.018 sec  (  7.5% of F)
    Basis function eval.    ....       0.006 sec  ( 31.9% of XC)
    Density eval.           ....       0.003 sec  ( 17.4% of XC)
    XC-Functional eval.     ....       0.002 sec  ( 13.1% of XC)
    XC-Potential eval.      ....       0.003 sec  ( 15.9% of XC)
Diagonalization             ....       0.002 sec  (  0.5%)
Density matrix formation    ....       0.001 sec  (  0.2%)
Population analysis         ....       0.004 sec  (  1.1%)
Initial guess               ....       0.001 sec  (  0.3%)
Orbital Transformation      ....       0.000 sec  (  0.0%)
Orbital Orthonormalization  ....       0.000 sec  (  0.1%)
DIIS solution               ....       0.002 sec  (  0.4%)
SOSCF solution              ....       0.001 sec  (  0.2%)
Grid generation             ....       0.087 sec  ( 22.6%)

Maximum memory used throughout the entire SCF-calculation: 58.3 MB

-------------------------   --------------------
FINAL SINGLE POINT ENERGY      -343.016290063678
-------------------------   --------------------

                                *** OPTIMIZATION RUN DONE ***

                            ***************************************
                            *     ORCA property calculations      *
                            ***************************************

                                    ---------------------
                                    Active property flags
                                    ---------------------
   (+) Dipole Moment


------------------------------------------------------------------------------
                       ORCA ELECTRIC PROPERTIES CALCULATION
------------------------------------------------------------------------------

Dipole Moment Calculation                       ... on
Quadrupole Moment Calculation                   ... off
Polarizability Calculation                      ... off
GBWName                                         ... phosphine_OPT.gbw
Electron density                                ... phosphine_OPT.scfp
The origin for moment calculation is the CENTER OF MASS  = (-0.131918, -0.186398  0.322990)

-------------
DIPOLE MOMENT
-------------
                                X             Y             Z
Electronic contribution:     -0.59021      -0.83440       1.44547
Nuclear contribution   :      0.68242       0.96474      -1.67130
                        -----------------------------------------
Total Dipole Moment    :      0.09221       0.13034      -0.22583
                        -----------------------------------------
Magnitude (a.u.)       :      0.27657
Magnitude (Debye)      :      0.70297



--------------------
Rotational spectrum 
--------------------
 
Rotational constants in cm-1:     4.445043     4.444854     3.936882 
Rotational constants in MHz : 133259.033668 133253.369889 118024.763384 

 Dipole components along the rotational axes: 
x,y,z [a.u.] :     0.000068    -0.000020    -0.276566 
x,y,z [Debye]:     0.000173    -0.000050    -0.702974 

 


           ************************************************************
           *        Program running with 6 parallel MPI-processes     *
           *              working on a common directory               *
           ************************************************************

-------------------------------------------------------------------------------
                               ORCA SCF HESSIAN
-------------------------------------------------------------------------------

Hessian of the Kohn-Sham DFT energy:
Kohn-Sham wavefunction type                      ... RKS
Hartree-Fock exchange scaling                    ...    0.250
Number of operators                              ...    1
Number of atoms                                  ...    4
Basis set dimensions                             ...   55
Integral neglect threshold                       ... 2.5e-11
Integral primitive cutoff                        ... 2.5e-12

Setting up DFT Hessian calculations              ... 

HESS GRID
---------

General Integration Accuracy     IntAcc      ... 4.629
Radial Grid Type                 RadialGrid  ... OptM3 with GC (2021)
Angular Grid (max. ang.)         AngularGrid ... 5 (Lebedev-434)
Angular grid pruning method      GridPruning ... 4 (adaptive)
Weight generation scheme         WeightScheme... Becke
Basis function cutoff            BFCut       ... 1.0000e-11
Integration weight cutoff        WCut        ... 1.0000e-14
Angular grids for H and He will be reduced by one unit
Partially contracted basis set               ... off
Rotationally invariant grid construction     ... off

Total number of grid points                  ...    25997
Total number of batches                      ...      408
Average number of points per batch           ...       63
Average number of grid points per atom       ...     6499

Building densities                               ... done   (      0.0 sec)
Calculating rho(r) on the grid                   ... done   (      0.0 sec)
Building xc-kernel on the grid                   ... done   (      0.0 sec)
                                                     done   (      0.1 sec)

Nuclear repulsion Hessian  (SHARK)               ... done   (      0.0 sec)

----------------------------------------------
Forming right-hand sides of CP-SCF equations     ...
----------------------------------------------
One electron integral derivatives  (SHARK)       ... done   (      0.0 sec)
Transforming the overlap derivative matrices     ... done   (      0.0 sec)
Making the Q(x) pseudodensities                  ... done   (      0.0 sec)
Adding the E*S(x)*S(y) terms to the Hessian      ... done   (      0.0 sec)
Calculating energy weighted overlap derivatives  ... done   (      0.0 sec)
Two electron integral derivatives (SHARK-RI)     ... done   (      0.2 sec)
Exchange-correlation integral derivatives        ... done   (      0.3 sec)
tr(F(y)Q(x)) contribution to the Hessian         ... done   (      0.0 sec)
Response fock operator R(S(x)) (SHARK-RIJCOSX)   ... done   (      0.2 sec)
XC Response fock operator R(S(x))                ... done   (      0.1 sec)
tr(F(y)S(x)) contribution to the Hessian         ... done   (      0.0 sec)
Transforming and finalizing RHSs                 ... done   (      0.0 sec)

----------------------------------------------
Solving the CP-SCF equations (RIJCOSX)           ...
----------------------------------------------
     CP-SCF ITERATION   0:   5.3455e-02 (   0.1 sec   0/ 12 done)
     CP-SCF ITERATION   1:   9.0196e-03 (   0.1 sec   0/ 12 done)
     CP-SCF ITERATION   2:   1.9674e-03 (   0.1 sec   0/ 12 done)
     CP-SCF ITERATION   3:   3.5605e-04 (   0.1 sec   1/ 12 done)
     CP-SCF ITERATION   4:   6.1101e-05 (   0.1 sec  12/ 12 done)
                    *** THE CP-SCF HAS CONVERGED ***

                                                 ... done   (      0.6 sec)
Forming perturbed density Hessian contributions  ... done   (      0.0 sec)
2nd integral derivative contribs (SHARK-RI)      ... done   (      0.6 sec)
Exchange-correlation Hessian                     ... done   (      0.2 sec)
Dipole derivatives                               ... done   (      0.1 sec)

Total SCF Hessian time: 0 days 0 hours 0 min 2 sec 

Writing the Hessian file to the disk             ... done


Maximum memory used throughout the entire SCFHESS-calculation: 68.0 MB

-----------------------
VIBRATIONAL FREQUENCIES
-----------------------

Scaling factor for frequencies =  1.000000000  (already applied!)

   0:         0.00 cm**-1
   1:         0.00 cm**-1
   2:         0.00 cm**-1
   3:         0.00 cm**-1
   4:         0.00 cm**-1
   5:         0.00 cm**-1
   6:      1004.64 cm**-1
   7:      1134.20 cm**-1
   8:      1134.26 cm**-1
   9:      2412.12 cm**-1
  10:      2422.68 cm**-1
  11:      2423.00 cm**-1


------------
NORMAL MODES
------------

These modes are the Cartesian displacements weighted by the diagonal matrix
M(i,i)=1/sqrt(m[i]) where m[i] is the mass of the displaced atom
Thus, these vectors are normalized but *not* orthogonal

                  0          1          2          3          4          5    
      0       0.000000   0.000000   0.000000   0.000000   0.000000   0.000000
      1       0.000000   0.000000   0.000000   0.000000   0.000000   0.000000
      2       0.000000   0.000000   0.000000   0.000000   0.000000   0.000000
      3       0.000000   0.000000   0.000000   0.000000   0.000000   0.000000
      4       0.000000   0.000000   0.000000   0.000000   0.000000   0.000000
      5       0.000000   0.000000   0.000000   0.000000   0.000000   0.000000
      6       0.000000   0.000000   0.000000   0.000000   0.000000   0.000000
      7       0.000000   0.000000   0.000000   0.000000   0.000000   0.000000
      8       0.000000   0.000000   0.000000   0.000000   0.000000   0.000000
      9       0.000000   0.000000   0.000000   0.000000   0.000000   0.000000
     10       0.000000   0.000000   0.000000   0.000000   0.000000   0.000000
     11       0.000000   0.000000   0.000000   0.000000   0.000000   0.000000
                  6          7          8          9         10         11    
      0      -0.015744  -0.013433   0.018302   0.009831  -0.024325   0.019487
      1      -0.022257   0.019186   0.009098   0.013950   0.022307   0.018585
      2       0.038551   0.005593   0.012730  -0.023071   0.003078   0.019331
      3       0.309381  -0.147002  -0.604717   0.137947   0.161744   0.065910
      4      -0.033860   0.057182  -0.201749  -0.560195  -0.726734  -0.267524
      5      -0.485541   0.363643  -0.320495   0.098343   0.150348   0.059814
      6       0.309301   0.621017  -0.041051   0.132827  -0.033681  -0.175485
      7       0.437390  -0.257949   0.441266   0.187961  -0.035687  -0.250196
      8      -0.213499  -0.053489  -0.121963   0.512564  -0.120321  -0.757073
      9      -0.134911  -0.061237   0.083395  -0.572861   0.619397  -0.489235
     10       0.280396  -0.388783  -0.519092  -0.056416   0.076974  -0.053373
     11      -0.485567  -0.482018   0.051291   0.098030  -0.124622   0.103241


-----------
IR SPECTRUM
-----------

 Mode   freq       eps      Int      T**2         TX        TY        TZ
       cm**-1   L/(mol*cm) km/mol    a.u.
----------------------------------------------------------------------------
  6:   1004.64   0.002957   14.94  0.000918  (-0.010113 -0.014321  0.024720)
  7:   1134.20   0.001865    9.43  0.000513  (-0.012667  0.018034  0.005250)
  8:   1134.26   0.001867    9.44  0.000514  ( 0.017219  0.008526  0.012020)
  9:   2412.12   0.005197   26.27  0.000672  ( 0.008981  0.012707 -0.020743)
 10:   2422.68   0.010843   54.80  0.001397  (-0.027444  0.025131  0.003451)
 11:   2423.00   0.010840   54.78  0.001396  ( 0.022028  0.021003  0.021673)

* The epsilon (eps) is given for a Dirac delta lineshape.
** The dipole moment derivative (T) already includes vibrational overlap.

The first frequency considered to be a vibration is 6
The total number of vibrations considered is 6


--------------------------
THERMOCHEMISTRY AT 298.15K
--------------------------

Temperature         ... 298.15 K
Pressure            ... 1.00 atm
Total Mass          ... 34.00 AMU

Throughout the following assumptions are being made:
  (1) The electronic state is orbitally nondegenerate
  (2) There are no thermally accessible electronically excited states
  (3) Hindered rotations indicated by low frequency modes are not
      treated as such but are treated as vibrations and this may
      cause some error
  (4) All equations used are the standard statistical mechanics
      equations for an ideal gas
  (5) All vibrations are strictly harmonic

freq.    1004.64  E(vib)   ...       0.02 
freq.    1134.20  E(vib)   ...       0.01 
freq.    1134.26  E(vib)   ...       0.01 
freq.    2412.12  E(vib)   ...       0.00 
freq.    2422.68  E(vib)   ...       0.00 
freq.    2423.00  E(vib)   ...       0.00 

------------
INNER ENERGY
------------

The inner energy is: U= E(el) + E(ZPE) + E(vib) + E(rot) + E(trans)
    E(el)   - is the total energy from the electronic structure calculation
              = E(kin-el) + E(nuc-el) + E(el-el) + E(nuc-nuc)
    E(ZPE)  - the the zero temperature vibrational energy from the frequency calculation
    E(vib)  - the the finite temperature correction to E(ZPE) due to population
              of excited vibrational states
    E(rot)  - is the rotational thermal energy
    E(trans)- is the translational thermal energy

Summary of contributions to the inner energy U:
Electronic energy                ...   -343.01629006 Eh
Zero point energy                ...      0.02399115 Eh      15.05 kcal/mol
Thermal vibrational correction   ...      0.00008004 Eh       0.05 kcal/mol
Thermal rotational correction    ...      0.00141627 Eh       0.89 kcal/mol
Thermal translational correction ...      0.00141627 Eh       0.89 kcal/mol
-----------------------------------------------------------------------
Total thermal energy                   -342.98938633 Eh


Summary of corrections to the electronic energy:
(perhaps to be used in another calculation)
Total thermal correction                  0.00291258 Eh       1.83 kcal/mol
Non-thermal (ZPE) correction              0.02399115 Eh      15.05 kcal/mol
-----------------------------------------------------------------------
Total correction                          0.02690374 Eh      16.88 kcal/mol


--------
ENTHALPY
--------

The enthalpy is H = U + kB*T
                kB is Boltzmann's constant
Total free energy                 ...   -342.98938633 Eh 
Thermal Enthalpy correction       ...      0.00094421 Eh       0.59 kcal/mol
-----------------------------------------------------------------------
Total Enthalpy                    ...   -342.98844212 Eh


Note: Rotational entropy computed according to Herzberg 
Infrared and Raman Spectra, Chapter V,1, Van Nostrand Reinhold, 1945 
Point Group:  C3v, Symmetry Number:   3  
Rotational constants in cm-1:     4.445043     4.444854     3.936882 

Vibrational entropy computed according to the QRRHO of S. Grimme
Chem.Eur.J. 2012 18 9955


-------
ENTROPY
-------

The entropy contributions are T*S = T*(S(el)+S(vib)+S(rot)+S(trans))
     S(el)   - electronic entropy
     S(vib)  - vibrational entropy
     S(rot)  - rotational entropy
     S(trans)- translational entropy
The entropies will be listed as multiplied by the temperature to get
units of energy

Electronic entropy                ...      0.00000000 Eh      0.00 kcal/mol
Vibrational entropy               ...      0.00009548 Eh      0.06 kcal/mol
Rotational entropy                ...      0.00641807 Eh      4.03 kcal/mol
Translational entropy             ...      0.01734327 Eh     10.88 kcal/mol
-----------------------------------------------------------------------
Final entropy term                ...      0.02385683 Eh     14.97 kcal/mol

In case the symmetry of your molecule has not been determined correctly
or in case you have a reason to use a different symmetry number we print 
out the resulting rotational entropy values for sn=1,12 :
 --------------------------------------------------------
|  sn= 1 | S(rot)=       0.00745536 Eh      4.68 kcal/mol|
|  sn= 2 | S(rot)=       0.00680091 Eh      4.27 kcal/mol|
|  sn= 3 | S(rot)=       0.00641807 Eh      4.03 kcal/mol|
|  sn= 4 | S(rot)=       0.00614645 Eh      3.86 kcal/mol|
|  sn= 5 | S(rot)=       0.00593576 Eh      3.72 kcal/mol|
|  sn= 6 | S(rot)=       0.00576362 Eh      3.62 kcal/mol|
|  sn= 7 | S(rot)=       0.00561807 Eh      3.53 kcal/mol|
|  sn= 8 | S(rot)=       0.00549199 Eh      3.45 kcal/mol|
|  sn= 9 | S(rot)=       0.00538079 Eh      3.38 kcal/mol|
|  sn=10 | S(rot)=       0.00528131 Eh      3.31 kcal/mol|
|  sn=11 | S(rot)=       0.00519132 Eh      3.26 kcal/mol|
|  sn=12 | S(rot)=       0.00510916 Eh      3.21 kcal/mol|
 --------------------------------------------------------


-------------------
GIBBS FREE ENERGY
-------------------

The Gibbs free energy is G = H - T*S

Total enthalpy                    ...   -342.98844212 Eh 
Total entropy correction          ...     -0.02385683 Eh    -14.97 kcal/mol
-----------------------------------------------------------------------
Final Gibbs free energy         ...   -343.01229895 Eh

For completeness - the Gibbs free energy minus the electronic energy
G-E(el)                           ...      0.00399112 Eh      2.50 kcal/mol


Timings for individual modules:

Sum of individual times         ...       13.918 sec (=   0.232 min)
GTO integral calculation        ...        1.537 sec (=   0.026 min)  11.0 %
SCF iterations                  ...        6.536 sec (=   0.109 min)  47.0 %
SCF Gradient evaluation         ...        2.855 sec (=   0.048 min)  20.5 %
Geometry relaxation             ...        0.108 sec (=   0.002 min)   0.8 %
Analytical frequency calculation...        2.882 sec (=   0.048 min)  20.7 %
                             ****ORCA TERMINATED NORMALLY****
TOTAL RUN TIME: 0 days 0 hours 0 minutes 14 seconds 859 msec
