
                                 *****************
                                 * O   R   C   A *
                                 *****************

                                            #,                                       
                                            ###                                      
                                            ####                                     
                                            #####                                    
                                            ######                                   
                                           ########,                                 
                                     ,,################,,,,,                         
                               ,,#################################,,                 
                          ,,##########################################,,             
                       ,#########################################, ''#####,          
                    ,#############################################,,   '####,        
                  ,##################################################,,,,####,       
                ,###########''''           ''''###############################       
              ,#####''   ,,,,##########,,,,          '''####'''          '####       
            ,##' ,,,,###########################,,,                        '##       
           ' ,,###''''                  '''############,,,                           
         ,,##''                                '''############,,,,        ,,,,,,###''
      ,#''                                            '''#######################'''  
     '                                                          ''''####''''         
             ,#######,   #######,   ,#######,      ##                                
            ,#'     '#,  ##    ##  ,#'     '#,    #''#        ######   ,####,        
            ##       ##  ##   ,#'  ##            #'  '#       #        #'  '#        
            ##       ##  #######   ##           ,######,      #####,   #    #        
            '#,     ,#'  ##    ##  '#,     ,#' ,#      #,         ##   #,  ,#        
             '#######'   ##     ##  '#######'  #'      '#     #####' # '####'        



                  #######################################################
                  #                        -***-                        #
                  #          Department of theory and spectroscopy      #
                  #    Directorship and core code : Frank Neese         #
                  #        Max Planck Institute fuer Kohlenforschung    #
                  #                Kaiser Wilhelm Platz 1               #
                  #                 D-45470 Muelheim/Ruhr               #
                  #                      Germany                        #
                  #                                                     #
                  #                  All rights reserved                #
                  #                        -***-                        #
                  #######################################################


                         Program Version 5.0.1 -  RELEASE  -


 With contributions from (in alphabetic order):
   Daniel Aravena         : Magnetic Suceptibility
   Michael Atanasov       : Ab Initio Ligand Field Theory (pilot matlab implementation)
   Alexander A. Auer      : GIAO ZORA, VPT2 properties, NMR spectrum
   Ute Becker             : Parallelization
   Giovanni Bistoni       : ED, misc. LED, open-shell LED, HFLD
   Martin Brehm           : Molecular dynamics
   Dmytro Bykov           : SCF Hessian
   Vijay G. Chilkuri      : MRCI spin determinant printing, contributions to CSF-ICE
   Dipayan Datta          : RHF DLPNO-CCSD density
   Achintya Kumar Dutta   : EOM-CC, STEOM-CC
   Dmitry Ganyushin       : Spin-Orbit,Spin-Spin,Magnetic field MRCI
   Miquel Garcia          : C-PCM and meta-GGA Hessian, CC/C-PCM, Gaussian charge scheme
   Yang Guo               : DLPNO-NEVPT2, F12-NEVPT2, CIM, IAO-localization
   Andreas Hansen         : Spin unrestricted coupled pair/coupled cluster methods
   Benjamin Helmich-Paris : MC-RPA, TRAH-SCF, COSX integrals
   Lee Huntington         : MR-EOM, pCC
   Robert Izsak           : Overlap fitted RIJCOSX, COSX-SCS-MP3, EOM
   Marcus Kettner         : VPT2
   Christian Kollmar      : KDIIS, OOCD, Brueckner-CCSD(T), CCSD density, CASPT2, CASPT2-K
   Simone Kossmann        : Meta GGA functionals, TD-DFT gradient, OOMP2, MP2 Hessian
   Martin Krupicka        : Initial AUTO-CI
   Lucas Lang             : DCDCAS
   Marvin Lechner         : AUTO-CI (C++ implementation), FIC-MRCC
   Dagmar Lenk            : GEPOL surface, SMD
   Dimitrios Liakos       : Extrapolation schemes; Compound Job, initial MDCI parallelization
   Dimitrios Manganas     : Further ROCIS development; embedding schemes
   Dimitrios Pantazis     : SARC Basis sets
   Anastasios Papadopoulos: AUTO-CI, single reference methods and gradients
   Taras Petrenko         : DFT Hessian,TD-DFT gradient, ASA, ECA, R-Raman, ABS, FL, XAS/XES, NRVS
   Peter Pinski           : DLPNO-MP2, DLPNO-MP2 Gradient
   Christoph Reimann      : Effective Core Potentials
   Marius Retegan         : Local ZFS, SOC
   Christoph Riplinger    : Optimizer, TS searches, QM/MM, DLPNO-CCSD(T), (RO)-DLPNO pert. Triples
   Tobias Risthaus        : Range-separated hybrids, TD-DFT gradient, RPA, STAB
   Michael Roemelt        : Original ROCIS implementation
   Masaaki Saitow         : Open-shell DLPNO-CCSD energy and density
   Barbara Sandhoefer     : DKH picture change effects
   Avijit Sen             : IP-ROCIS
   Kantharuban Sivalingam : CASSCF convergence, NEVPT2, FIC-MRCI
   Bernardo de Souza      : ESD, SOC TD-DFT
   Georgi Stoychev        : AutoAux, RI-MP2 NMR, DLPNO-MP2 response
   Willem Van den Heuvel  : Paramagnetic NMR
   Boris Wezisla          : Elementary symmetry handling
   Frank Wennmohs         : Technical directorship


 We gratefully acknowledge several colleagues who have allowed us to
 interface, adapt or use parts of their codes:
   Stefan Grimme, W. Hujo, H. Kruse, P. Pracht,  : VdW corrections, initial TS optimization,
                  C. Bannwarth, S. Ehlert          DFT functionals, gCP, sTDA/sTD-DF
   Ed Valeev, F. Pavosevic, A. Kumar             : LibInt (2-el integral package), F12 methods
   Garnet Chan, S. Sharma, J. Yang, R. Olivares  : DMRG
   Ulf Ekstrom                                   : XCFun DFT Library
   Mihaly Kallay                                 : mrcc  (arbitrary order and MRCC methods)
   Jiri Pittner, Ondrej Demel                    : Mk-CCSD
   Frank Weinhold                                : gennbo (NPA and NBO analysis)
   Christopher J. Cramer and Donald G. Truhlar   : smd solvation model
   Lars Goerigk                                  : TD-DFT with DH, B97 family of functionals
   V. Asgeirsson, H. Jonsson                     : NEB implementation
   FAccTs GmbH                                   : IRC, NEB, NEB-TS, DLPNO-Multilevel, CI-OPT
                                                   MM, QMMM, 2- and 3-layer-ONIOM, Crystal-QMMM,
                                                   LR-CPCM, SF, NACMEs, symmetry and pop. for TD-DFT,
                                                   nearIR, NL-DFT gradient (VV10), updates on ESD,
                                                   ML-optimized integration grids
   S Lehtola, MJT Oliveira, MAL Marques          : LibXC Library
   Liviu Ungur et al                             : ANISO software


 Your calculation uses the libint2 library for the computation of 2-el integrals
 For citations please refer to: http://libint.valeyev.net

 Your ORCA version has been built with support for libXC version: 5.1.0
 For citations please refer to: https://tddft.org/programs/libxc/

 This ORCA versions uses:
   CBLAS   interface :  Fast vector & matrix operations
   LAPACKE interface :  Fast linear algebra routines
   SCALAPACK package :  Parallel linear algebra routines
   Shared memory     :  Shared parallel matrices
   BLAS/LAPACK       :  OpenBLAS 0.3.15  USE64BITINT DYNAMIC_ARCH NO_AFFINITY Zen SINGLE_THREADED
        Core in use  :  Zen
   Copyright (c) 2011-2014, The OpenBLAS Project




***************************************
The coordinates will be read from file: acetaldehyde.xyz
***************************************


================================================================================

----- Orbital basis set information -----
Your calculation utilizes the basis: def2-TZVP
   F. Weigend and R. Ahlrichs, Phys. Chem. Chem. Phys. 7, 3297 (2005).

----- AuxJ basis set information -----
Your calculation utilizes the auxiliary basis: def2/J
   F. Weigend, Phys. Chem. Chem. Phys. 8, 1057 (2006).

================================================================================
                                        WARNINGS
                       Please study these warnings very carefully!
================================================================================


WARNING: Geometry Optimization
  ===> : Switching off AutoStart
         For restart on a previous wavefunction, please use MOREAD

INFO   : the flag for use of the SHARK integral package has been found!

================================================================================
                                       INPUT FILE
================================================================================
NAME = acetaldehyde_OPT.inp
|  1> 
|  2> %pal
|  3>   nprocs 6
|  4> end
|  5> %maxcore 2000
|  6> 
|  7> ! PBE0 def2-TZVP TightOPT Freq
|  8> ! RIJCOSX def2/J
|  9> 
| 10> * xyzfile 0 1 acetaldehyde.xyz
| 11> 
| 12> 
| 13>                          ****END OF INPUT****
================================================================================

                       *****************************
                       * Geometry Optimization Run *
                       *****************************

Geometry optimization settings:
Update method            Update   .... BFGS
Choice of coordinates    CoordSys .... Z-matrix Internals
Initial Hessian          InHess   .... Almoef's Model

Convergence Tolerances:
Energy Change            TolE     ....  1.0000e-06 Eh
Max. Gradient            TolMAXG  ....  1.0000e-04 Eh/bohr
RMS Gradient             TolRMSG  ....  3.0000e-05 Eh/bohr
Max. Displacement        TolMAXD  ....  1.0000e-03 bohr
RMS Displacement         TolRMSD  ....  6.0000e-04 bohr
Strict Convergence                ....  False
------------------------------------------------------------------------------
                        ORCA OPTIMIZATION COORDINATE SETUP
------------------------------------------------------------------------------

The optimization will be done in new redundant internal coordinates
Making redundant internal coordinates   ...  (new redundants) done
Evaluating the initial hessian          ...  (Almloef) done
Evaluating the coordinates              ...  done
Calculating the B-matrix                .... done
Calculating the G-matrix                .... done
Diagonalizing the G-matrix              .... done
The first mode is                       ....    6
The number of degrees of freedom        ....   15

    -----------------------------------------------------------------
                    Redundant Internal Coordinates


    -----------------------------------------------------------------
         Definition                    Initial Value    Approx d2E/dq
    -----------------------------------------------------------------
      1. B(C   1,C   0)                  1.4682         0.468797   
      2. B(O   2,C   1)                  1.2514         0.931026   
      3. B(H   3,C   0)                  1.0912         0.358523   
      4. B(H   4,C   0)                  1.0907         0.359152   
      5. B(H   5,C   0)                  1.0907         0.359142   
      6. B(H   6,C   1)                  1.0220         0.462220   
      7. A(H   3,C   0,H   4)          108.8313         0.290519   
      8. A(C   1,C   0,H   4)          109.4601         0.336580   
      9. A(C   1,C   0,H   3)          111.1448         0.336482   
     10. A(C   1,C   0,H   5)          109.4599         0.336579   
     11. A(H   3,C   0,H   5)          108.8308         0.290518   
     12. A(H   4,C   0,H   5)          109.0813         0.290597   
     13. A(O   2,C   1,H   6)          118.9291         0.392648   
     14. A(C   0,C   1,H   6)          119.9245         0.351129   
     15. A(C   0,C   1,O   2)          121.1463         0.441208   
     16. D(O   2,C   1,C   0,H   4)    120.2454         0.016202   
     17. D(O   2,C   1,C   0,H   5)   -120.2452         0.016202   
     18. D(H   6,C   1,C   0,H   3)    179.9994         0.016202   
     19. D(H   6,C   1,C   0,H   4)    -59.7548         0.016202   
     20. D(H   6,C   1,C   0,H   5)     59.7545         0.016202   
     21. D(O   2,C   1,C   0,H   3)     -0.0003         0.016202   
    -----------------------------------------------------------------

Number of atoms                         .... 7
Number of degrees of freedom            .... 21

         *************************************************************
         *                GEOMETRY OPTIMIZATION CYCLE   1            *
         *************************************************************
---------------------------------
CARTESIAN COORDINATES (ANGSTROEM)
---------------------------------
  C      1.431160   -0.038490   -0.249220
  C     -0.021420   -0.021410   -0.036350
  O     -0.705180    0.987910   -0.318860
  H      1.779380    0.908860   -0.663920
  H      1.935760   -0.213160    0.701850
  H      1.687530   -0.841330   -0.941610
  H     -0.489980   -0.844000    0.348830

----------------------------
CARTESIAN COORDINATES (A.U.)
----------------------------
  NO LB      ZA    FRAG     MASS         X           Y           Z
   0 C     6.0000    0    12.011    2.704500   -0.072736   -0.470958
   1 C     6.0000    0    12.011   -0.040478   -0.040459   -0.068692
   2 O     8.0000    0    15.999   -1.332597    1.866879   -0.602558
   3 H     1.0000    0     1.008    3.362541    1.717496   -1.254627
   4 H     1.0000    0     1.008    3.658056   -0.402814    1.326304
   5 H     1.0000    0     1.008    3.188970   -1.589883   -1.779385
   6 H     1.0000    0     1.008   -0.925928   -1.594929    0.659193

--------------------------------
INTERNAL COORDINATES (ANGSTROEM)
--------------------------------
 C      0   0   0     0.000000000000     0.00000000     0.00000000
 C      1   0   0     1.468194135562     0.00000000     0.00000000
 O      2   1   0     1.251425786893   121.14633964     0.00000000
 H      1   2   3     1.091194428551   111.14479081     0.00000000
 H      1   2   3     1.090717614142   109.46005986   120.24542207
 H      1   2   3     1.090725242488   109.45986289   239.75475831
 H      2   1   3     1.022040319214   119.92452505   179.99973460

---------------------------
INTERNAL COORDINATES (A.U.)
---------------------------
 C      0   0   0     0.000000000000     0.00000000     0.00000000
 C      1   0   0     2.774484827642     0.00000000     0.00000000
 O      2   1   0     2.364852014154   121.14633964     0.00000000
 H      1   2   3     2.062058628821   111.14479081     0.00000000
 H      1   2   3     2.061157580173   109.46005986   120.24542207
 H      1   2   3     2.061171995657   109.45986289   239.75475831
 H      2   1   3     1.931376301141   119.92452505   179.99973460

---------------------
BASIS SET INFORMATION
---------------------
There are 3 groups of distinct atoms

 Group   1 Type C   : 11s6p2d1f contracted to 5s3p2d1f pattern {62111/411/11/1}
 Group   2 Type O   : 11s6p2d1f contracted to 5s3p2d1f pattern {62111/411/11/1}
 Group   3 Type H   : 5s1p contracted to 3s1p pattern {311/1}

Atom   0C    basis set group =>   1
Atom   1C    basis set group =>   1
Atom   2O    basis set group =>   2
Atom   3H    basis set group =>   3
Atom   4H    basis set group =>   3
Atom   5H    basis set group =>   3
Atom   6H    basis set group =>   3
---------------------------------
AUXILIARY/J BASIS SET INFORMATION
---------------------------------
There are 3 groups of distinct atoms

 Group   1 Type C   : 12s5p4d2f1g contracted to 6s4p3d1f1g pattern {711111/2111/211/2/1}
 Group   2 Type O   : 12s5p4d2f1g contracted to 6s4p3d1f1g pattern {711111/2111/211/2/1}
 Group   3 Type H   : 5s2p1d contracted to 3s1p1d pattern {311/2/1}

Atom   0C    basis set group =>   1
Atom   1C    basis set group =>   1
Atom   2O    basis set group =>   2
Atom   3H    basis set group =>   3
Atom   4H    basis set group =>   3
Atom   5H    basis set group =>   3
Atom   6H    basis set group =>   3


           ************************************************************
           *        Program running with 6 parallel MPI-processes     *
           *              working on a common directory               *
           ************************************************************
------------------------------------------------------------------------------
                           ORCA GTO INTEGRAL CALCULATION
                           -- RI-GTO INTEGRALS CHOSEN --
------------------------------------------------------------------------------
------------------------------------------------------------------------------
                   ___                                                        
                  /   \      - P O W E R E D   B Y -                         
                 /     \                                                     
                 |  |  |   _    _      __       _____    __    __             
                 |  |  |  | |  | |    /  \     |  _  \  |  |  /  |          
                  \  \/   | |  | |   /    \    | | | |  |  | /  /          
                 / \  \   | |__| |  /  /\  \   | |_| |  |  |/  /          
                |  |  |   |  __  | /  /__\  \  |    /   |      \           
                |  |  |   | |  | | |   __   |  |    \   |  |\   \          
                \     /   | |  | | |  |  |  |  | |\  \  |  | \   \       
                 \___/    |_|  |_| |__|  |__|  |_| \__\ |__|  \__/        
                                                                              
                      - O R C A' S   B I G   F R I E N D -                    
                                      &                                       
                       - I N T E G R A L  F E E D E R -                       
                                                                              
 v1 FN, 2020, v2 2021                                                         
------------------------------------------------------------------------------


Reading SHARK input file acetaldehyde_OPT.SHARKINP.tmp ... ok
----------------------
SHARK INTEGRAL PACKAGE
----------------------

Number of atoms                             ...      7
Number of basis functions                   ...    117
Number of shells                            ...     49
Maximum angular momentum                    ...      3
Integral batch strategy                     ... SHARK/LIBINT Hybrid
RI-J (if used) integral strategy            ... SPLIT-RIJ (Revised 2003 algorithm where possible)
Printlevel                                  ...      1
Contraction scheme used                     ... SEGMENTED contraction
Coulomb Range Separation                    ... NOT USED
Exchange Range Separation                   ... NOT USED
Finite Nucleus Model                        ... NOT USED
Auxiliary Coulomb fitting basis             ... AVAILABLE
   # of basis functions in Aux-J            ...    191
   # of shells in Aux-J                     ...     65
   Maximum angular momentum in Aux-J        ...      4
Auxiliary J/K fitting basis                 ... NOT available
Auxiliary Correlation fitting basis         ... NOT available
Auxiliary 'external' fitting basis          ... NOT available
Integral threshold                          ...     2.500000e-11
Primitive cut-off                           ...     2.500000e-12
Primitive pair pre-selection threshold      ...     2.500000e-12

Calculating pre-screening integrals         ... done (  0.0 sec) Dimension = 49
Organizing shell pair data                  ... done (  0.0 sec)
Shell pair information
Total number of shell pairs                 ...      1225
Shell pairs after pre-screening             ...      1214
Total number of primitive shell pairs       ...      3648
Primitive shell pairs kept                  ...      3094
          la=0 lb=0:    368 shell pairs
          la=1 lb=0:    351 shell pairs
          la=1 lb=1:     91 shell pairs
          la=2 lb=0:    161 shell pairs
          la=2 lb=1:     78 shell pairs
          la=2 lb=2:     21 shell pairs
          la=3 lb=0:     81 shell pairs
          la=3 lb=1:     39 shell pairs
          la=3 lb=2:     18 shell pairs
          la=3 lb=3:      6 shell pairs

Calculating one electron integrals          ... done (  0.0 sec)
Calculating RI/J V-Matrix + Cholesky decomp.... done (  0.0 sec)
Calculating Nuclear repulsion               ... done (  0.0 sec) ENN=     69.892017289415 Eh

SHARK setup successfully completed in   0.1 seconds

Maximum memory used throughout the entire GTOINT-calculation: 13.7 MB


           ************************************************************
           *        Program running with 6 parallel MPI-processes     *
           *              working on a common directory               *
           ************************************************************
-------------------------------------------------------------------------------
                                 ORCA SCF
-------------------------------------------------------------------------------

------------
SCF SETTINGS
------------
Hamiltonian:
 Density Functional     Method          .... DFT(GTOs)
 Exchange Functional    Exchange        .... PBE
   PBE kappa parameter   XKappa         ....  0.804000
   PBE mue parameter    XMuePBE         ....  0.219520
 Correlation Functional Correlation     .... PBE
   PBE beta parameter  CBetaPBE         ....  0.066725
 LDA part of GGA corr.  LDAOpt          .... PW91-LDA
 Gradients option       PostSCFGGA      .... off
 Hybrid DFT is turned on
   Fraction HF Exchange ScalHFX         ....  0.250000
   Scaling of DF-GGA-X  ScalDFX         ....  0.750000
   Scaling of DF-GGA-C  ScalDFC         ....  1.000000
   Scaling of DF-LDA-C  ScalLDAC        ....  1.000000
   Perturbative correction              ....  0.000000
   Density functional embedding theory  .... OFF
   NL short-range parameter             ....  6.900000
 RI-approximation to the Coulomb term is turned on
   Number of AuxJ basis functions       .... 191
   RIJ-COSX (HFX calculated with COS-X)).... on


General Settings:
 Integral files         IntName         .... acetaldehyde_OPT
 Hartree-Fock type      HFTyp           .... RHF
 Total Charge           Charge          ....    0
 Multiplicity           Mult            ....    1
 Number of Electrons    NEL             ....   24
 Basis Dimension        Dim             ....  117
 Nuclear Repulsion      ENuc            ....     69.8920172894 Eh

Convergence Acceleration:
 DIIS                   CNVDIIS         .... on
   Start iteration      DIISMaxIt       ....    12
   Startup error        DIISStart       ....  0.200000
   # of expansion vecs  DIISMaxEq       ....     5
   Bias factor          DIISBfac        ....   1.050
   Max. coefficient     DIISMaxC        ....  10.000
 Trust-Rad. Augm. Hess. CNVTRAH         .... auto
   Auto Start mean grad. ratio tolernc. ....  1.125000
   Auto Start start iteration           ....    20
   Auto Start num. interpolation iter.  ....    10
   Max. Number of Micro iterations      ....    16
   Max. Number of Macro iterations      .... Maxiter - #DIIS iter
   Number of Davidson start vectors     ....     2
   Converg. threshold I  (grad. norm)   ....   1.000e-05
   Converg. threshold II (energy diff.) ....   1.000e-08
   Grad. Scal. Fac. for Micro threshold ....   0.100
   Minimum threshold for Micro iter.    ....   0.010
   NR start threshold (gradient norm)   ....   0.001
   Initial trust radius                 ....   0.400
   Minimum AH scaling param. (alpha)    ....   1.000
   Maximum AH scaling param. (alpha)    .... 1000.000
   Orbital update algorithm             .... Taylor
   White noise on init. David. guess    .... on
   Maximum white noise                  ....   0.010
   Quad. conv. algorithm                .... NR
 SOSCF                  CNVSOSCF        .... on
   Start iteration      SOSCFMaxIt      ....   150
   Startup grad/error   SOSCFStart      ....  0.003300
 Level Shifting         CNVShift        .... on
   Level shift para.    LevelShift      ....    0.2500
   Turn off err/grad.   ShiftErr        ....    0.0010
 Zerner damping         CNVZerner       .... off
 Static damping         CNVDamp         .... on
   Fraction old density DampFac         ....    0.7000
   Max. Damping (<1)    DampMax         ....    0.9800
   Min. Damping (>=0)   DampMin         ....    0.0000
   Turn off err/grad.   DampErr         ....    0.1000
 Fernandez-Rico         CNVRico         .... off

SCF Procedure:
 Maximum # iterations   MaxIter         ....   125
 SCF integral mode      SCFMode         .... Direct
   Integral package                     .... SHARK and LIBINT hybrid scheme
 Reset frequency        DirectResetFreq ....    20
 Integral Threshold     Thresh          ....  2.500e-11 Eh
 Primitive CutOff       TCut            ....  2.500e-12 Eh

Convergence Tolerance:
 Convergence Check Mode ConvCheckMode   .... Total+1el-Energy
 Convergence forced     ConvForced      .... 0
 Energy Change          TolE            ....  1.000e-08 Eh
 1-El. energy change                    ....  1.000e-05 Eh
 Orbital Gradient       TolG            ....  1.000e-05
 Orbital Rotation angle TolX            ....  1.000e-05
 DIIS Error             TolErr          ....  5.000e-07


Diagonalization of the overlap matrix:
Smallest eigenvalue                        ... 4.432e-04
Time for diagonalization                   ...    0.002 sec
Threshold for overlap eigenvalues          ... 1.000e-08
Number of eigenvalues below threshold      ... 0
Time for construction of square roots      ...    0.001 sec
Total time needed                          ...    0.002 sec

Time for model grid setup =    0.017 sec

------------------------------
INITIAL GUESS: MODEL POTENTIAL
------------------------------
Loading Hartree-Fock densities                     ... done
Calculating cut-offs                               ... done
Initializing the effective Hamiltonian             ... done
Setting up the integral package (SHARK)            ... done
Starting the Coulomb interaction                   ... done (   0.0 sec)
Reading the grid                                   ... done
Mapping shells                                     ... done
Starting the XC term evaluation                    ... done (   0.0 sec)
  promolecular density results
     # of electrons  =     23.998013891
     EX              =    -19.521468152
     EC              =     -0.772365784
     EX+EC           =    -20.293833935
Transforming the Hamiltonian                       ... done (   0.0 sec)
Diagonalizing the Hamiltonian                      ... done (   0.0 sec)
Back transforming the eigenvectors                 ... done (   0.0 sec)
Now organizing SCF variables                       ... done
                      ------------------
                      INITIAL GUESS DONE (   0.0 sec)
                      ------------------
-------------------
DFT GRID GENERATION
-------------------

General Integration Accuracy     IntAcc      ... 4.388
Radial Grid Type                 RadialGrid  ... OptM3 with GC (2021)
Angular Grid (max. ang.)         AngularGrid ... 4 (Lebedev-302)
Angular grid pruning method      GridPruning ... 4 (adaptive)
Weight generation scheme         WeightScheme... Becke
Basis function cutoff            BFCut       ... 1.0000e-11
Integration weight cutoff        WCut        ... 1.0000e-14
Angular grids for H and He will be reduced by one unit
Partially contracted basis set               ... off
Rotationally invariant grid construction     ... off

Total number of grid points                  ...    31310
Total number of batches                      ...      491
Average number of points per batch           ...       63
Average number of grid points per atom       ...     4473
Time for grid setup =    0.116 sec

--------------------
COSX GRID GENERATION
--------------------

GRIDX 1
-------
General Integration Accuracy     IntAcc      ... 3.816
Radial Grid Type                 RadialGrid  ... OptM3 with GC (2021)
Angular Grid (max. ang.)         AngularGrid ... 1 (Lebedev-50)
Angular grid pruning method      GridPruning ... 4 (adaptive)
Weight generation scheme         WeightScheme... Becke
Basis function cutoff            BFCut       ... 1.0000e-11
Integration weight cutoff        WCut        ... 1.0000e-14
Angular grids for H and He will be reduced by one unit
Partially contracted basis set               ... on
Rotationally invariant grid construction     ... off

Total number of grid points                  ...     4036
Total number of batches                      ...       67
Average number of points per batch           ...       60
Average number of grid points per atom       ...      577
UseSFitting                                  ... on

GRIDX 2
-------
General Integration Accuracy     IntAcc      ... 4.020
Radial Grid Type                 RadialGrid  ... OptM3 with GC (2021)
Angular Grid (max. ang.)         AngularGrid ... 2 (Lebedev-110)
Angular grid pruning method      GridPruning ... 4 (adaptive)
Weight generation scheme         WeightScheme... Becke
Basis function cutoff            BFCut       ... 1.0000e-11
Integration weight cutoff        WCut        ... 1.0000e-14
Angular grids for H and He will be reduced by one unit
Partially contracted basis set               ... on
Rotationally invariant grid construction     ... off

Total number of grid points                  ...     8723
Total number of batches                      ...      140
Average number of points per batch           ...       62
Average number of grid points per atom       ...     1246
UseSFitting                                  ... on

GRIDX 3
-------
General Integration Accuracy     IntAcc      ... 4.338
Radial Grid Type                 RadialGrid  ... OptM3 with GC (2021)
Angular Grid (max. ang.)         AngularGrid ... 3 (Lebedev-194)
Angular grid pruning method      GridPruning ... 4 (adaptive)
Weight generation scheme         WeightScheme... Becke
Basis function cutoff            BFCut       ... 1.0000e-11
Integration weight cutoff        WCut        ... 1.0000e-14
Angular grids for H and He will be reduced by one unit
Partially contracted basis set               ... on
Rotationally invariant grid construction     ... off

Total number of grid points                  ...    19238
Total number of batches                      ...      304
Average number of points per batch           ...       63
Average number of grid points per atom       ...     2748
UseSFitting                                  ... on

Time for X-Grid setup             =    0.082 sec

--------------
SCF ITERATIONS
--------------
ITER       Energy         Delta-E        Max-DP      RMS-DP      [F,P]     Damp
               ***  Starting incremental Fock matrix formation  ***
  0   -153.5834233459   0.000000000000 0.11270117  0.00254538  0.2607514 0.7000
  1   -153.6415800278  -0.058156681960 0.10030394  0.00200382  0.1018825 0.7000
                               ***Turning on DIIS***
  2   -153.6617202725  -0.020140244644 0.10374753  0.00267269  0.0460423 0.0000
  3   -153.6967513088  -0.035031036265 0.09933785  0.00173772  0.0495527 0.0000
  4   -153.7031456259  -0.006394317114 0.02418633  0.00046694  0.0164067 0.0000
                      *** Initiating the SOSCF procedure ***
                           *** Shutting down DIIS ***
                      *** Re-Reading the Fockian *** 
                      *** Removing any level shift *** 
ITER      Energy       Delta-E        Grad      Rot      Max-DP    RMS-DP
  5   -153.70388781  -0.0007421804  0.000595  0.000595  0.010439  0.000190
               *** Restarting incremental Fock matrix formation ***
  6   -153.70390911  -0.0000213084  0.000235  0.000717  0.007163  0.000126
  7   -153.70391012  -0.0000010010  0.000124  0.000310  0.002878  0.000052
  8   -153.70391019  -0.0000000771  0.000172  0.000208  0.001714  0.000030
  9   -153.70391033  -0.0000001414  0.000055  0.000063  0.000631  0.000012
 10   -153.70391036  -0.0000000267  0.000028  0.000053  0.000535  0.000010
 11   -153.70391038  -0.0000000169  0.000003  0.000004  0.000032  0.000001
                  ***Gradient check signals convergence***
              ***Rediagonalizing the Fockian in SOSCF/NRSCF***

               *****************************************************
               *                     SUCCESS                       *
               *           SCF CONVERGED AFTER  12 CYCLES          *
               *****************************************************

Old exchange energy                            =     -4.997092890 Eh
New exchange energy                            =     -4.997101309 Eh
Exchange energy change after final integration =     -0.000008419 Eh
Total energy after final integration           =   -153.703918797 Eh
Final COS-X integration done in                =     0.323 sec

----------------
TOTAL SCF ENERGY
----------------

Total Energy       :         -153.70391880 Eh           -4182.49626 eV

Components:
Nuclear Repulsion  :           69.89201729 Eh            1901.85848 eV
Electronic Energy  :         -223.59593609 Eh           -6084.35474 eV
One Electron Energy:         -346.56995712 Eh           -9430.64798 eV
Two Electron Energy:          122.97402103 Eh            3346.29323 eV
Max COSX asymmetry :            0.00000086 Eh               0.00002 eV

Virial components:
Potential Energy   :         -306.77263468 Eh           -8347.70778 eV
Kinetic Energy     :          153.06871588 Eh            4165.21151 eV
Virial Ratio       :            2.00414979


DFT components:
N(Alpha)           :       12.000000208373 electrons
N(Beta)            :       12.000000208373 electrons
N(Total)           :       24.000000416747 electrons
E(X)               :      -14.963988698663 Eh       
E(C)               :       -0.779367461428 Eh       
E(XC)              :      -15.743356160092 Eh       
DFET-embed. en.    :        0.000000000000 Eh       

---------------
SCF CONVERGENCE
---------------

  Last Energy change         ...    2.8902e-10  Tolerance :   1.0000e-08
  Last MAX-Density change    ...    4.4409e-16  Tolerance :   1.0000e-07
  Last RMS-Density change    ...    1.6942e-17  Tolerance :   5.0000e-09
  Last Orbital Gradient      ...    1.1460e-06  Tolerance :   1.0000e-05
  Last Orbital Rotation      ...    1.5246e-06  Tolerance :   1.0000e-05

             **** THE GBW FILE WAS UPDATED (acetaldehyde_OPT.gbw) ****
             **** DENSITY acetaldehyde_OPT.scfp WAS UPDATED ****
             **** ENERGY FILE WAS UPDATED (acetaldehyde_OPT.en.tmp) ****
             **** THE GBW FILE WAS UPDATED (acetaldehyde_OPT.gbw) ****
             **** DENSITY acetaldehyde_OPT.scfp WAS UPDATED ****
----------------
ORBITAL ENERGIES
----------------

  NO   OCC          E(Eh)            E(eV) 
   0   2.0000     -19.203622      -522.5571 
   1   2.0000     -10.310931      -280.5747 
   2   2.0000     -10.233255      -278.4610 
   3   2.0000      -1.055714       -28.7274 
   4   2.0000      -0.788688       -21.4613 
   5   2.0000      -0.622592       -16.9416 
   6   2.0000      -0.499710       -13.5978 
   7   2.0000      -0.467892       -12.7320 
   8   2.0000      -0.452038       -12.3006 
   9   2.0000      -0.410504       -11.1704 
  10   2.0000      -0.370236       -10.0746 
  11   2.0000      -0.275180        -7.4880 
  12   0.0000      -0.035796        -0.9741 
  13   0.0000       0.052200         1.4204 
  14   0.0000       0.092996         2.5306 
  15   0.0000       0.106921         2.9095 
  16   0.0000       0.113212         3.0806 
  17   0.0000       0.149026         4.0552 
  18   0.0000       0.171975         4.6797 
  19   0.0000       0.222642         6.0584 
  20   0.0000       0.241155         6.5622 
  21   0.0000       0.257026         6.9940 
  22   0.0000       0.261335         7.1113 
  23   0.0000       0.323472         8.8021 
  24   0.0000       0.396110        10.7787 
  25   0.0000       0.416599        11.3362 
  26   0.0000       0.424966        11.5639 
  27   0.0000       0.451499        12.2859 
  28   0.0000       0.454722        12.3736 
  29   0.0000       0.478924        13.0322 
  30   0.0000       0.533026        14.5044 
  31   0.0000       0.546920        14.8824 
  32   0.0000       0.563905        15.3446 
  33   0.0000       0.628683        17.1073 
  34   0.0000       0.643841        17.5198 
  35   0.0000       0.739153        20.1134 
  36   0.0000       0.764976        20.8161 
  37   0.0000       0.813091        22.1253 
  38   0.0000       0.917056        24.9544 
  39   0.0000       0.973615        26.4934 
  40   0.0000       0.997261        27.1368 
  41   0.0000       1.030538        28.0424 
  42   0.0000       1.050323        28.5807 
  43   0.0000       1.112861        30.2825 
  44   0.0000       1.222062        33.2540 
  45   0.0000       1.390230        37.8301 
  46   0.0000       1.434461        39.0337 
  47   0.0000       1.473007        40.0826 
  48   0.0000       1.480767        40.2937 
  49   0.0000       1.513744        41.1911 
  50   0.0000       1.515549        41.2402 
  51   0.0000       1.585456        43.1425 
  52   0.0000       1.610215        43.8162 
  53   0.0000       1.610295        43.8184 
  54   0.0000       1.695019        46.1238 
  55   0.0000       1.827474        49.7281 
  56   0.0000       1.828700        49.7615 
  57   0.0000       1.932872        52.5961 
  58   0.0000       1.939496        52.7764 
  59   0.0000       2.069672        56.3186 
  60   0.0000       2.096672        57.0534 
  61   0.0000       2.123855        57.7930 
  62   0.0000       2.144010        58.3415 
  63   0.0000       2.220652        60.4270 
  64   0.0000       2.297887        62.5287 
  65   0.0000       2.332796        63.4786 
  66   0.0000       2.353830        64.0510 
  67   0.0000       2.456068        66.8330 
  68   0.0000       2.525830        68.7313 
  69   0.0000       2.535690        68.9996 
  70   0.0000       2.577895        70.1481 
  71   0.0000       2.650995        72.1372 
  72   0.0000       2.694618        73.3243 
  73   0.0000       2.748399        74.7877 
  74   0.0000       2.794784        76.0499 
  75   0.0000       2.839455        77.2655 
  76   0.0000       2.929128        79.7056 
  77   0.0000       2.943395        80.0938 
  78   0.0000       2.992465        81.4291 
  79   0.0000       3.006963        81.8236 
  80   0.0000       3.076853        83.7254 
  81   0.0000       3.099604        84.3445 
  82   0.0000       3.157342        85.9156 
  83   0.0000       3.166582        86.1671 
  84   0.0000       3.259394        88.6926 
  85   0.0000       3.284077        89.3643 
  86   0.0000       3.362995        91.5118 
  87   0.0000       3.433349        93.4262 
  88   0.0000       3.472407        94.4890 
  89   0.0000       3.512417        95.5777 
  90   0.0000       3.547684        96.5374 
  91   0.0000       3.779256       102.8388 
  92   0.0000       3.812745       103.7501 
  93   0.0000       3.922352       106.7326 
  94   0.0000       3.969805       108.0239 
  95   0.0000       3.992418       108.6392 
  96   0.0000       4.270822       116.2150 
  97   0.0000       4.365634       118.7949 
  98   0.0000       4.389375       119.4410 
  99   0.0000       4.462854       121.4404 
 100   0.0000       4.603529       125.2684 
 101   0.0000       4.680265       127.3565 
 102   0.0000       5.194085       141.3382 
 103   0.0000       5.200988       141.5261 
 104   0.0000       5.511422       149.9734 
 105   0.0000       5.614002       152.7648 
 106   0.0000       6.005908       163.4291 
 107   0.0000       6.215042       169.1199 
 108   0.0000       6.307970       171.6486 
 109   0.0000       6.355024       172.9290 
 110   0.0000       6.436086       175.1348 
 111   0.0000       6.796359       184.9383 
 112   0.0000       6.929949       188.5735 
 113   0.0000       7.014623       190.8776 
 114   0.0000      22.368963       608.6904 
 115   0.0000      22.874897       622.4576 
 116   0.0000      43.745467      1190.3747 

                    ********************************
                    * MULLIKEN POPULATION ANALYSIS *
                    ********************************

-----------------------
MULLIKEN ATOMIC CHARGES
-----------------------
   0 C :   -0.289162
   1 C :    0.122643
   2 O :   -0.321135
   3 H :    0.135695
   4 H :    0.131811
   5 H :    0.131864
   6 H :    0.088284
Sum of atomic charges:   -0.0000000

--------------------------------
MULLIKEN REDUCED ORBITAL CHARGES
--------------------------------
  0 C s       :     3.152382  s :     3.152382
      pz      :     1.043597  p :     3.086860
      px      :     0.954898
      py      :     1.088365
      dz2     :     0.005085  d :     0.046684
      dxz     :     0.012256
      dyz     :     0.006499
      dx2y2   :     0.009905
      dxy     :     0.012938
      f0      :     0.000348  f :     0.003237
      f+1     :     0.000440
      f-1     :     0.000214
      f+2     :     0.000819
      f-2     :    -0.000011
      f+3     :     0.000639
      f-3     :     0.000789
  1 C s       :     3.214860  s :     3.214860
      pz      :     0.744777  p :     2.486316
      px      :     0.910327
      py      :     0.831212
      dz2     :     0.007667  d :     0.162153
      dxz     :     0.027957
      dyz     :     0.025864
      dx2y2   :     0.058505
      dxy     :     0.042160
      f0      :     0.001327  f :     0.014028
      f+1     :     0.000886
      f-1     :     0.001402
      f+2     :     0.001484
      f-2     :     0.001796
      f+3     :     0.002244
      f-3     :     0.004887
  2 O s       :     3.842117  s :     3.842117
      pz      :     1.332832  p :     4.446807
      px      :     1.683813
      py      :     1.430162
      dz2     :     0.003542  d :     0.030519
      dxz     :     0.003877
      dyz     :     0.006963
      dx2y2   :     0.007657
      dxy     :     0.008480
      f0      :     0.000113  f :     0.001692
      f+1     :     0.000104
      f-1     :     0.000148
      f+2     :     0.000099
      f-2     :     0.000349
      f+3     :     0.000431
      f-3     :     0.000447
  3 H s       :     0.842800  s :     0.842800
      pz      :     0.005569  p :     0.021505
      px      :     0.004947
      py      :     0.010988
  4 H s       :     0.846555  s :     0.846555
      pz      :     0.010289  p :     0.021634
      px      :     0.006701
      py      :     0.004644
  5 H s       :     0.846504  s :     0.846504
      pz      :     0.007847  p :     0.021631
      px      :     0.005234
      py      :     0.008551
  6 H s       :     0.889230  s :     0.889230
      pz      :     0.004981  p :     0.022485
      px      :     0.006721
      py      :     0.010783


                     *******************************
                     * LOEWDIN POPULATION ANALYSIS *
                     *******************************

----------------------
LOEWDIN ATOMIC CHARGES
----------------------
   0 C :   -0.297084
   1 C :   -0.278277
   2 O :    0.061068
   3 H :    0.136866
   4 H :    0.140187
   5 H :    0.140192
   6 H :    0.097048

-------------------------------
LOEWDIN REDUCED ORBITAL CHARGES
-------------------------------
  0 C s       :     2.833473  s :     2.833473
      pz      :     1.057671  p :     3.203206
      px      :     1.072458
      py      :     1.073077
      dz2     :     0.027952  d :     0.235240
      dxz     :     0.057832
      dyz     :     0.034971
      dx2y2   :     0.058178
      dxy     :     0.056306
      f0      :     0.002953  f :     0.025165
      f+1     :     0.004493
      f-1     :     0.001291
      f+2     :     0.003853
      f-2     :     0.001756
      f+3     :     0.004714
      f-3     :     0.006105
  1 C s       :     2.829809  s :     2.829809
      pz      :     0.738143  p :     2.727750
      px      :     1.037979
      py      :     0.951627
      dz2     :     0.039400  d :     0.630541
      dxz     :     0.094396
      dyz     :     0.077726
      dx2y2   :     0.226482
      dxy     :     0.192536
      f0      :     0.006633  f :     0.090178
      f+1     :     0.006620
      f-1     :     0.006720
      f+2     :     0.011003
      f-2     :     0.010838
      f+3     :     0.014293
      f-3     :     0.034070
  2 O s       :     3.445571  s :     3.445571
      pz      :     1.281747  p :     4.422679
      px      :     1.631601
      py      :     1.509331
      dz2     :     0.007287  d :     0.065449
      dxz     :     0.004940
      dyz     :     0.011167
      dx2y2   :     0.020210
      dxy     :     0.021845
      f0      :     0.000381  f :     0.005233
      f+1     :     0.000326
      f-1     :     0.000464
      f+2     :     0.000359
      f-2     :     0.000706
      f+3     :     0.001345
      f-3     :     0.001651
  3 H s       :     0.801142  s :     0.801142
      pz      :     0.016190  p :     0.061992
      px      :     0.013757
      py      :     0.032046
  4 H s       :     0.796963  s :     0.796963
      pz      :     0.030659  p :     0.062850
      px      :     0.017770
      py      :     0.014422
  5 H s       :     0.796958  s :     0.796958
      pz      :     0.022625  p :     0.062850
      px      :     0.014354
      py      :     0.025870
  6 H s       :     0.834033  s :     0.834033
      pz      :     0.015831  p :     0.068919
      px      :     0.020371
      py      :     0.032718


                      *****************************
                      * MAYER POPULATION ANALYSIS *
                      *****************************

  NA   - Mulliken gross atomic population
  ZA   - Total nuclear charge
  QA   - Mulliken gross atomic charge
  VA   - Mayer's total valence
  BVA  - Mayer's bonded valence
  FA   - Mayer's free valence

  ATOM       NA         ZA         QA         VA         BVA        FA
  0 C      6.2892     6.0000    -0.2892     3.7058     3.7058     0.0000
  1 C      5.8774     6.0000     0.1226     4.0877     4.0877    -0.0000
  2 O      8.3211     8.0000    -0.3211     2.1036     2.1036    -0.0000
  3 H      0.8643     1.0000     0.1357     1.0046     1.0046     0.0000
  4 H      0.8682     1.0000     0.1318     0.9747     0.9747    -0.0000
  5 H      0.8681     1.0000     0.1319     0.9747     0.9747     0.0000
  6 H      0.9117     1.0000     0.0883     0.9488     0.9488    -0.0000

  Mayer bond orders larger than 0.100000
B(  0-C ,  1-C ) :   0.9995 B(  0-C ,  3-H ) :   0.9564 B(  0-C ,  4-H ) :   0.9354 
B(  0-C ,  5-H ) :   0.9354 B(  1-C ,  2-O ) :   2.0844 B(  1-C ,  6-H ) :   0.9669 


-------
TIMINGS
-------

Total SCF time: 0 days 0 hours 0 min 3 sec 

Total time                  ....       3.048 sec
Sum of individual times     ....       2.954 sec  ( 96.9%)

Fock matrix formation       ....       2.650 sec  ( 86.9%)
  Split-RI-J                ....       0.245 sec  (  9.3% of F)
  Chain of spheres X        ....       1.911 sec  ( 72.1% of F)
  XC integration            ....       0.470 sec  ( 17.8% of F)
    Basis function eval.    ....       0.138 sec  ( 29.4% of XC)
    Density eval.           ....       0.092 sec  ( 19.5% of XC)
    XC-Functional eval.     ....       0.030 sec  (  6.4% of XC)
    XC-Potential eval.      ....       0.115 sec  ( 24.5% of XC)
Diagonalization             ....       0.017 sec  (  0.6%)
Density matrix formation    ....       0.002 sec  (  0.1%)
Population analysis         ....       0.011 sec  (  0.3%)
Initial guess               ....       0.021 sec  (  0.7%)
Orbital Transformation      ....       0.000 sec  (  0.0%)
Orbital Orthonormalization  ....       0.000 sec  (  0.0%)
DIIS solution               ....       0.023 sec  (  0.8%)
SOSCF solution              ....       0.014 sec  (  0.5%)
Grid generation             ....       0.216 sec  (  7.1%)

Maximum memory used throughout the entire SCF-calculation: 61.1 MB

-------------------------   --------------------
FINAL SINGLE POINT ENERGY      -153.703918796834
-------------------------   --------------------



           ************************************************************
           *        Program running with 6 parallel MPI-processes     *
           *              working on a common directory               *
           ************************************************************
------------------------------------------------------------------------------
                         ORCA SCF GRADIENT CALCULATION
------------------------------------------------------------------------------

 ... reading COSX grid (gridx3)
Gradient of the Kohn-Sham DFT energy:
Kohn-Sham wavefunction type      ... RKS
Hartree-Fock exchange scaling    ...    0.250
Number of operators              ...    1
Number of atoms                  ...    7
Basis set dimensions             ...  117
Integral neglect threshold       ... 2.5e-11
Integral primitive cutoff        ... 2.5e-12
SHARK Integral package           ... ON

Nuc. rep. gradient       (SHARK) ... done (  0.0 sec)
HCore & Overlap gradient (SHARK) ... done (  0.0 sec)
RI-J gradient            (SHARK) ... done (  0.1 sec)
COSX-gradient                    ... done (  0.4 sec)
Exchange-correlation gradient    ... done

------------------
CARTESIAN GRADIENT
------------------

   1   C   :   -0.009863772   -0.001352536    0.002038627
   2   C   :    0.015130325   -0.110709952    0.040037998
   3   O   :   -0.028773534    0.051370282   -0.015269305
   4   H   :    0.002969538    0.000628928   -0.000674097
   5   H   :   -0.002953091    0.004234684   -0.001043020
   6   H   :   -0.002974403    0.004126971   -0.001242807
   7   H   :    0.026566720    0.051671780   -0.023759042

Difference to translation invariance:
           :    0.0001017819   -0.0000298445    0.0000883546

Difference to rotation invariance:
           :    0.0000242854   -0.0000877647    0.0002542191

Norm of the cartesian gradient     ...    0.1479763595
RMS gradient                       ...    0.0322910890
MAX gradient                       ...    0.1107099522

-------
TIMINGS
-------

Total SCF gradient time            ...        0.714 sec

One electron gradient       ....       0.007 sec  (  1.0%)
RI-J Coulomb gradient       ....       0.086 sec  ( 12.1%)
COSX gradient               ....       0.370 sec  ( 51.9%)
XC gradient                 ....       0.151 sec  ( 21.2%)

Maximum memory used throughout the entire SCFGRAD-calculation: 35.9 MB
------------------------------------------------------------------------------
                         ORCA GEOMETRY RELAXATION STEP
------------------------------------------------------------------------------

Reading the OPT-File                    .... done
Getting information on internals        .... done
Copying old internal coords+grads       .... done
Making the new internal coordinates     .... (new redundants).... done
Validating the new internal coordinates .... (new redundants).... done
Calculating the B-matrix                .... done
Calculating the G,G- and P matrices     .... done
Transforming gradient to internals      .... done
Projecting the internal gradient        .... done
Number of atoms                         ....   7
Number of internal coordinates          ....  21
Current Energy                          ....  -153.703918797 Eh
Current gradient norm                   ....     0.147976359 Eh/bohr
Maximum allowed component of the step   ....  0.300
Current trust radius                    ....  0.300
Evaluating the initial hessian          ....  (Almloef) done
Projecting the Hessian                  .... done
Forming the augmented Hessian           .... done
Diagonalizing the augmented Hessian     .... done
Last element of RFO vector              ....  0.988074277
Lowest eigenvalues of augmented Hessian:
 -0.013167209  0.016202095  0.016202100  0.137922813  0.141183526
Length of the computed step             ....  0.155836455
The final length of the internal step   ....  0.155836455
Converting the step to cartesian space:
 Initial RMS(Int)=    0.0340063025
Transforming coordinates:
 Iter   0:  RMS(Cart)=    0.0258551176 RMS(Int)=    1.3714995615
 Iter   1:  RMS(Cart)=    0.0002612255 RMS(Int)=    0.0001883932
 Iter   2:  RMS(Cart)=    0.0000098711 RMS(Int)=    0.0000073308
 Iter   3:  RMS(Cart)=    0.0000005395 RMS(Int)=    0.0000004275
 Iter   4:  RMS(Cart)=    0.0000000301 RMS(Int)=    0.0000000234
done
Storing new coordinates                 .... done

                                .--------------------.
          ----------------------|Geometry convergence|-------------------------
          Item                value                   Tolerance       Converged
          ---------------------------------------------------------------------
          RMS gradient        0.0195325478            0.0000300000      NO
          MAX gradient        0.0627333560            0.0001000000      NO
          RMS step            0.0340063025            0.0006000000      NO
          MAX step            0.1319627322            0.0010000000      NO
          ........................................................
          Max(Bonds)      0.0698      Max(Angles)    1.33
          Max(Dihed)        0.51      Max(Improp)    0.00
          ---------------------------------------------------------------------

The optimization has not yet converged - more geometry cycles are needed


    ---------------------------------------------------------------------------
                         Redundant Internal Coordinates
                            (Angstroem and degrees)

        Definition                    Value    dE/dq     Step     New-Value
    ----------------------------------------------------------------------------
     1. B(C   1,C   0)                1.4682 -0.012693  0.0139    1.4821   
     2. B(O   2,C   1)                1.2514  0.060625 -0.0340    1.2174   
     3. B(H   3,C   0)                1.0912  0.001745 -0.0025    1.0887   
     4. B(H   4,C   0)                1.0907 -0.002969  0.0042    1.0949   
     5. B(H   5,C   0)                1.0907 -0.002941  0.0042    1.0949   
     6. B(H   6,C   1)                1.0220 -0.062733  0.0698    1.0919   
     7. A(H   3,C   0,H   4)          108.83 -0.001560    0.45    109.28   
     8. A(C   1,C   0,H   4)          109.46 -0.002572    0.36    109.82   
     9. A(C   1,C   0,H   3)          111.14  0.003722   -0.47    110.67   
    10. A(C   1,C   0,H   5)          109.46 -0.002575    0.36    109.82   
    11. A(H   3,C   0,H   5)          108.83 -0.001552    0.45    109.28   
    12. A(H   4,C   0,H   5)          109.08  0.004614   -1.18    107.90   
    13. A(O   2,C   1,H   6)          118.93  0.002523   -0.27    118.66   
    14. A(C   0,C   1,H   6)          119.92  0.007409   -1.07    118.86   
    15. A(C   0,C   1,O   2)          121.15 -0.009932    1.33    122.48   
    16. D(O   2,C   1,C   0,H   4)    120.25 -0.001266    0.51    120.76   
    17. D(O   2,C   1,C   0,H   5)   -120.25  0.001251   -0.49   -120.73   
    18. D(H   6,C   1,C   0,H   3)    180.00 -0.000002    0.01    180.01   
    19. D(H   6,C   1,C   0,H   4)    -59.75 -0.001264    0.51    -59.25   
    20. D(H   6,C   1,C   0,H   5)     59.75  0.001253   -0.49     59.26   
    21. D(O   2,C   1,C   0,H   3)     -0.00 -0.000004    0.01      0.01   
    ----------------------------------------------------------------------------

         *************************************************************
         *                GEOMETRY OPTIMIZATION CYCLE   2            *
         *************************************************************
---------------------------------
CARTESIAN COORDINATES (ANGSTROEM)
---------------------------------
  C      1.438940   -0.028993   -0.254022
  C     -0.028086    0.006425   -0.045958
  O     -0.703468    0.982386   -0.317138
  H      1.791383    0.914342   -0.667774
  H      1.944625   -0.217398    0.698698
  H      1.697235   -0.843195   -0.938987
  H     -0.523380   -0.875188    0.365901

----------------------------
CARTESIAN COORDINATES (A.U.)
----------------------------
  NO LB      ZA    FRAG     MASS         X           Y           Z
   0 C     6.0000    0    12.011    2.719202   -0.054788   -0.480031
   1 C     6.0000    0    12.011   -0.053075    0.012141   -0.086847
   2 O     8.0000    0    15.999   -1.329362    1.856440   -0.599305
   3 H     1.0000    0     1.008    3.385224    1.727857   -1.261911
   4 H     1.0000    0     1.008    3.674809   -0.410822    1.320347
   5 H     1.0000    0     1.008    3.207310   -1.593407   -1.774429
   6 H     1.0000    0     1.008   -0.989045   -1.653865    0.691453

--------------------------------
INTERNAL COORDINATES (ANGSTROEM)
--------------------------------
 C      0   0   0     0.000000000000     0.00000000     0.00000000
 C      1   0   0     1.482130165520     0.00000000     0.00000000
 O      2   1   0     1.217448323636   122.47866458     0.00000000
 H      1   2   3     1.088709643505   110.67532709     0.00000000
 H      1   2   3     1.094937541287   109.82185606   120.75848719
 H      1   2   3     1.094905966119   109.82169308   239.26759833
 H      2   1   3     1.091871989854   118.85892599   179.99532527

---------------------------
INTERNAL COORDINATES (A.U.)
---------------------------
 C      0   0   0     0.000000000000     0.00000000     0.00000000
 C      1   0   0     2.800820107656     0.00000000     0.00000000
 O      2   1   0     2.300643913874   122.47866458     0.00000000
 H      1   2   3     2.057363065584   110.67532709     0.00000000
 H      1   2   3     2.069132086782   109.82185606   120.75848719
 H      1   2   3     2.069072418361   109.82169308   239.26759833
 H      2   1   3     2.063339034123   118.85892599   179.99532527



           ************************************************************
           *        Program running with 6 parallel MPI-processes     *
           *              working on a common directory               *
           ************************************************************
------------------------------------------------------------------------------
                   ___                                                        
                  /   \      - P O W E R E D   B Y -                         
                 /     \                                                     
                 |  |  |   _    _      __       _____    __    __             
                 |  |  |  | |  | |    /  \     |  _  \  |  |  /  |          
                  \  \/   | |  | |   /    \    | | | |  |  | /  /          
                 / \  \   | |__| |  /  /\  \   | |_| |  |  |/  /          
                |  |  |   |  __  | /  /__\  \  |    /   |      \           
                |  |  |   | |  | | |   __   |  |    \   |  |\   \          
                \     /   | |  | | |  |  |  |  | |\  \  |  | \   \       
                 \___/    |_|  |_| |__|  |__|  |_| \__\ |__|  \__/        
                                                                              
                      - O R C A' S   B I G   F R I E N D -                    
                                      &                                       
                       - I N T E G R A L  F E E D E R -                       
                                                                              
 v1 FN, 2020, v2 2021                                                         
------------------------------------------------------------------------------


Reading SHARK input file acetaldehyde_OPT.SHARKINP.tmp ... ok
----------------------
SHARK INTEGRAL PACKAGE
----------------------

Number of atoms                             ...      7
Number of basis functions                   ...    117
Number of shells                            ...     49
Maximum angular momentum                    ...      3
Integral batch strategy                     ... SHARK/LIBINT Hybrid
RI-J (if used) integral strategy            ... SPLIT-RIJ (Revised 2003 algorithm where possible)
Printlevel                                  ...      1
Contraction scheme used                     ... SEGMENTED contraction
Coulomb Range Separation                    ... NOT USED
Exchange Range Separation                   ... NOT USED
Finite Nucleus Model                        ... NOT USED
Auxiliary Coulomb fitting basis             ... AVAILABLE
   # of basis functions in Aux-J            ...    191
   # of shells in Aux-J                     ...     65
   Maximum angular momentum in Aux-J        ...      4
Auxiliary J/K fitting basis                 ... NOT available
Auxiliary Correlation fitting basis         ... NOT available
Auxiliary 'external' fitting basis          ... NOT available
Integral threshold                          ...     2.500000e-11
Primitive cut-off                           ...     2.500000e-12
Primitive pair pre-selection threshold      ...     2.500000e-12

Calculating pre-screening integrals         ... done (  0.0 sec) Dimension = 49
Organizing shell pair data                  ... done (  0.0 sec)
Shell pair information
Total number of shell pairs                 ...      1225
Shell pairs after pre-screening             ...      1214
Total number of primitive shell pairs       ...      3648
Primitive shell pairs kept                  ...      3094
          la=0 lb=0:    368 shell pairs
          la=1 lb=0:    351 shell pairs
          la=1 lb=1:     91 shell pairs
          la=2 lb=0:    161 shell pairs
          la=2 lb=1:     78 shell pairs
          la=2 lb=2:     21 shell pairs
          la=3 lb=0:     81 shell pairs
          la=3 lb=1:     39 shell pairs
          la=3 lb=2:     18 shell pairs
          la=3 lb=3:      6 shell pairs

Calculating one electron integrals          ... done (  0.0 sec)
Calculating RI/J V-Matrix + Cholesky decomp.... done (  0.0 sec)
Calculating Nuclear repulsion               ... done (  0.0 sec) ENN=     70.007419265504 Eh

SHARK setup successfully completed in   0.1 seconds

Maximum memory used throughout the entire GTOINT-calculation: 13.7 MB


           ************************************************************
           *        Program running with 6 parallel MPI-processes     *
           *              working on a common directory               *
           ************************************************************

Diagonalization of the overlap matrix:
Smallest eigenvalue                        ... 4.790e-04
Time for diagonalization                   ...    0.002 sec
Threshold for overlap eigenvalues          ... 1.000e-08
Number of eigenvalues below threshold      ... 0
Time for construction of square roots      ...    0.001 sec
Total time needed                          ...    0.002 sec

-------------------
DFT GRID GENERATION
-------------------

General Integration Accuracy     IntAcc      ... 4.388
Radial Grid Type                 RadialGrid  ... OptM3 with GC (2021)
Angular Grid (max. ang.)         AngularGrid ... 4 (Lebedev-302)
Angular grid pruning method      GridPruning ... 4 (adaptive)
Weight generation scheme         WeightScheme... Becke
Basis function cutoff            BFCut       ... 1.0000e-11
Integration weight cutoff        WCut        ... 1.0000e-14
Angular grids for H and He will be reduced by one unit
Partially contracted basis set               ... off
Rotationally invariant grid construction     ... off

Total number of grid points                  ...    31320
Total number of batches                      ...      494
Average number of points per batch           ...       63
Average number of grid points per atom       ...     4474
Time for grid setup =    0.125 sec

--------------------
COSX GRID GENERATION
--------------------

GRIDX 1
-------
General Integration Accuracy     IntAcc      ... 3.816
Radial Grid Type                 RadialGrid  ... OptM3 with GC (2021)
Angular Grid (max. ang.)         AngularGrid ... 1 (Lebedev-50)
Angular grid pruning method      GridPruning ... 4 (adaptive)
Weight generation scheme         WeightScheme... Becke
Basis function cutoff            BFCut       ... 1.0000e-11
Integration weight cutoff        WCut        ... 1.0000e-14
Angular grids for H and He will be reduced by one unit
Partially contracted basis set               ... on
Rotationally invariant grid construction     ... off

Total number of grid points                  ...     4038
Total number of batches                      ...       67
Average number of points per batch           ...       60
Average number of grid points per atom       ...      577
UseSFitting                                  ... on

GRIDX 2
-------
General Integration Accuracy     IntAcc      ... 4.020
Radial Grid Type                 RadialGrid  ... OptM3 with GC (2021)
Angular Grid (max. ang.)         AngularGrid ... 2 (Lebedev-110)
Angular grid pruning method      GridPruning ... 4 (adaptive)
Weight generation scheme         WeightScheme... Becke
Basis function cutoff            BFCut       ... 1.0000e-11
Integration weight cutoff        WCut        ... 1.0000e-14
Angular grids for H and He will be reduced by one unit
Partially contracted basis set               ... on
Rotationally invariant grid construction     ... off

Total number of grid points                  ...     8725
Total number of batches                      ...      140
Average number of points per batch           ...       62
Average number of grid points per atom       ...     1246
UseSFitting                                  ... on

GRIDX 3
-------
General Integration Accuracy     IntAcc      ... 4.338
Radial Grid Type                 RadialGrid  ... OptM3 with GC (2021)
Angular Grid (max. ang.)         AngularGrid ... 3 (Lebedev-194)
Angular grid pruning method      GridPruning ... 4 (adaptive)
Weight generation scheme         WeightScheme... Becke
Basis function cutoff            BFCut       ... 1.0000e-11
Integration weight cutoff        WCut        ... 1.0000e-14
Angular grids for H and He will be reduced by one unit
Partially contracted basis set               ... on
Rotationally invariant grid construction     ... off

Total number of grid points                  ...    19246
Total number of batches                      ...      304
Average number of points per batch           ...       63
Average number of grid points per atom       ...     2749
UseSFitting                                  ... on

Time for X-Grid setup             =    0.116 sec

--------------
SCF ITERATIONS
--------------
ITER       Energy         Delta-E        Max-DP      RMS-DP      [F,P]     Damp
               ***  Starting incremental Fock matrix formation  ***
  0   -153.7098143121   0.000000000000 0.00285178  0.00014079  0.0283646 0.7000
                      *** Initiating the SOSCF procedure ***
                      *** Re-Reading the Fockian *** 
                      *** Removing any level shift *** 
ITER      Energy       Delta-E        Grad      Rot      Max-DP    RMS-DP
  1   -153.71042999  -0.0006156811  0.001616  0.001616  0.007311  0.000410
               *** Restarting incremental Fock matrix formation ***
  2   -153.71181739  -0.0013874007  0.003626  0.010272  0.018487  0.000389
  3   -153.71159622   0.0002211766  0.008057  0.007326  0.011449  0.000235
  4   -153.71192898  -0.0003327646  0.000166  0.000167  0.000311  0.000014
  5   -153.71192943  -0.0000004525  0.000079  0.000090  0.000404  0.000009
  6   -153.71192962  -0.0000001864  0.000025  0.000025  0.000103  0.000002
  7   -153.71192963  -0.0000000084  0.000011  0.000007  0.000018  0.000001
                  ***Gradient check signals convergence***
              ***Rediagonalizing the Fockian in SOSCF/NRSCF***

               *****************************************************
               *                     SUCCESS                       *
               *           SCF CONVERGED AFTER   8 CYCLES          *
               *****************************************************

Old exchange energy                            =     -4.995456848 Eh
New exchange energy                            =     -4.995462028 Eh
Exchange energy change after final integration =     -0.000005181 Eh
Total energy after final integration           =   -153.711934813 Eh
Final COS-X integration done in                =     0.289 sec
Total Energy       :         -153.71193481 Eh           -4182.71439 eV
  Last Energy change         ...   -2.7318e-09  Tolerance :   1.0000e-08
  Last MAX-Density change    ...    1.1102e-15  Tolerance :   1.0000e-07
             **** THE GBW FILE WAS UPDATED (acetaldehyde_OPT.gbw) ****
             **** DENSITY acetaldehyde_OPT.scfp WAS UPDATED ****
             **** ENERGY FILE WAS UPDATED (acetaldehyde_OPT.en.tmp) ****
             **** THE GBW FILE WAS UPDATED (acetaldehyde_OPT.gbw) ****
             **** DENSITY acetaldehyde_OPT.scfp WAS UPDATED ****
Total SCF time: 0 days 0 hours 0 min 2 sec 

Maximum memory used throughout the entire SCF-calculation: 61.2 MB

-------------------------   --------------------
FINAL SINGLE POINT ENERGY      -153.711934812561
-------------------------   --------------------



           ************************************************************
           *        Program running with 6 parallel MPI-processes     *
           *              working on a common directory               *
           ************************************************************
------------------------------------------------------------------------------
                         ORCA SCF GRADIENT CALCULATION
------------------------------------------------------------------------------

 ... reading COSX grid (gridx3)
Gradient of the Kohn-Sham DFT energy:
Kohn-Sham wavefunction type      ... RKS
Hartree-Fock exchange scaling    ...    0.250
Number of operators              ...    1
Number of atoms                  ...    7
Basis set dimensions             ...  117
Integral neglect threshold       ... 2.5e-11
Integral primitive cutoff        ... 2.5e-12
SHARK Integral package           ... ON

Nuc. rep. gradient       (SHARK) ... done (  0.0 sec)
HCore & Overlap gradient (SHARK) ... done (  0.0 sec)
RI-J gradient            (SHARK) ... done (  0.1 sec)
COSX-gradient                    ... done (  0.4 sec)
Exchange-correlation gradient    ... done

------------------
CARTESIAN GRADIENT
------------------

   1   C   :   -0.006018315    0.002950847   -0.000207597
   2   C   :    0.014870163   -0.034184789    0.010834931
   3   O   :   -0.009786179    0.018087887   -0.005447827
   4   H   :    0.001460194   -0.000622553    0.000030469
   5   H   :   -0.000384203    0.002215534    0.000776196
   6   H   :   -0.000778559    0.001189174   -0.001865146
   7   H   :    0.000703619    0.010344221   -0.004062344

Difference to translation invariance:
           :    0.0000667198   -0.0000196789    0.0000586832

Difference to rotation invariance:
           :   -0.0000118979   -0.0001132804    0.0003097599

Norm of the cartesian gradient     ...    0.0462859246
RMS gradient                       ...    0.0101004168
MAX gradient                       ...    0.0341847894

-------
TIMINGS
-------

Total SCF gradient time            ...        0.742 sec

One electron gradient       ....       0.007 sec  (  1.0%)
RI-J Coulomb gradient       ....       0.089 sec  ( 12.0%)
COSX gradient               ....       0.350 sec  ( 47.2%)
XC gradient                 ....       0.137 sec  ( 18.4%)

Maximum memory used throughout the entire SCFGRAD-calculation: 35.9 MB
------------------------------------------------------------------------------
                         ORCA GEOMETRY RELAXATION STEP
------------------------------------------------------------------------------

Reading the OPT-File                    .... done
Getting information on internals        .... done
Copying old internal coords+grads       .... done
Making the new internal coordinates     .... (new redundants).... done
Validating the new internal coordinates .... (new redundants).... done
Calculating the B-matrix                .... done
Calculating the G,G- and P matrices     .... done
Transforming gradient to internals      .... done
Projecting the internal gradient        .... done
Number of atoms                         ....   7
Number of internal coordinates          ....  21
Current Energy                          ....  -153.711934813 Eh
Current gradient norm                   ....     0.046285925 Eh/bohr
Maximum allowed component of the step   ....  0.300
Current trust radius                    ....  0.300
Updating the Hessian (BFGS)             .... done
Forming the augmented Hessian           .... done
Diagonalizing the augmented Hessian     .... done
Last element of RFO vector              ....  0.997749977
Lowest eigenvalues of augmented Hessian:
 -0.001610607  0.016202095  0.016202105  0.137922810  0.139708887
Length of the computed step             ....  0.067195831
The final length of the internal step   ....  0.067195831
Converting the step to cartesian space:
 Initial RMS(Int)=    0.0146633324
Transforming coordinates:
 Iter   0:  RMS(Cart)=    0.0114213035 RMS(Int)=    0.0146615286
 Iter   1:  RMS(Cart)=    0.0002120571 RMS(Int)=    0.0001692320
 Iter   2:  RMS(Cart)=    0.0000029215 RMS(Int)=    0.0000030525
 Iter   3:  RMS(Cart)=    0.0000000386 RMS(Int)=    0.0000000341
done
Storing new coordinates                 .... done

                                .--------------------.
          ----------------------|Geometry convergence|-------------------------
          Item                value                   Tolerance       Converged
          ---------------------------------------------------------------------
          Energy change      -0.0080160157            0.0000010000      NO
          RMS gradient        0.0058209201            0.0000300000      NO
          MAX gradient        0.0211616995            0.0001000000      NO
          RMS step            0.0146633324            0.0006000000      NO
          MAX step            0.0333835370            0.0010000000      NO
          ........................................................
          Max(Bonds)      0.0177      Max(Angles)    1.64
          Max(Dihed)        0.48      Max(Improp)    0.00
          ---------------------------------------------------------------------

The optimization has not yet converged - more geometry cycles are needed


    ---------------------------------------------------------------------------
                         Redundant Internal Coordinates
                            (Angstroem and degrees)

        Definition                    Value    dE/dq     Step     New-Value
    ----------------------------------------------------------------------------
     1. B(C   1,C   0)                1.4821 -0.005656  0.0089    1.4910   
     2. B(O   2,C   1)                1.2174  0.021162 -0.0172    1.2003   
     3. B(H   3,C   0)                1.0887 -0.000084  0.0001    1.0888   
     4. B(H   4,C   0)                1.0949  0.000105 -0.0001    1.0949   
     5. B(H   5,C   0)                1.0949  0.000107 -0.0001    1.0948   
     6. B(H   6,C   1)                1.0919 -0.010215  0.0177    1.1095   
     7. A(H   3,C   0,H   4)          109.28 -0.001241    0.48    109.76   
     8. A(C   1,C   0,H   4)          109.82 -0.000857    0.14    109.96   
     9. A(C   1,C   0,H   3)          110.68  0.002002   -0.34    110.33   
    10. A(C   1,C   0,H   5)          109.82 -0.000869    0.14    109.96   
    11. A(H   3,C   0,H   5)          109.28 -0.001234    0.47    109.76   
    12. A(H   4,C   0,H   5)          107.90  0.002193   -0.90    107.00   
    13. A(O   2,C   1,H   6)          118.66 -0.001256    0.34    119.00   
    14. A(C   0,C   1,H   6)          118.86  0.008009   -1.64    117.22   
    15. A(C   0,C   1,O   2)          122.48 -0.006753    1.30    123.78   
    16. D(O   2,C   1,C   0,H   4)    120.76 -0.000818    0.46    121.22   
    17. D(O   2,C   1,C   0,H   5)   -120.73  0.000820   -0.47   -121.21   
    18. D(H   6,C   1,C   0,H   3)   -179.99 -0.000003    0.01   -179.98   
    19. D(H   6,C   1,C   0,H   4)    -59.25 -0.000822    0.48    -58.77   
    20. D(H   6,C   1,C   0,H   5)     59.26  0.000815   -0.45     58.81   
    21. D(O   2,C   1,C   0,H   3)      0.01  0.000002   -0.01      0.00   
    ----------------------------------------------------------------------------

         *************************************************************
         *                GEOMETRY OPTIMIZATION CYCLE   3            *
         *************************************************************
---------------------------------
CARTESIAN COORDINATES (ANGSTROEM)
---------------------------------
  C      1.441924   -0.025509   -0.255827
  C     -0.034245    0.023670   -0.051718
  O     -0.712735    0.978350   -0.314159
  H      1.798281    0.916447   -0.669616
  H      1.944423   -0.225294    0.696161
  H      1.698601   -0.847406   -0.932010
  H     -0.519000   -0.881878    0.367889

----------------------------
CARTESIAN COORDINATES (A.U.)
----------------------------
  NO LB      ZA    FRAG     MASS         X           Y           Z
   0 C     6.0000    0    12.011    2.724842   -0.048205   -0.483443
   1 C     6.0000    0    12.011   -0.064713    0.044730   -0.097733
   2 O     8.0000    0    15.999   -1.346874    1.848813   -0.593674
   3 H     1.0000    0     1.008    3.398258    1.731835   -1.265391
   4 H     1.0000    0     1.008    3.674427   -0.425744    1.315553
   5 H     1.0000    0     1.008    3.209890   -1.601366   -1.761243
   6 H     1.0000    0     1.008   -0.980767   -1.666507    0.695210

--------------------------------
INTERNAL COORDINATES (ANGSTROEM)
--------------------------------
 C      0   0   0     0.000000000000     0.00000000     0.00000000
 C      1   0   0     1.491024490887     0.00000000     0.00000000
 O      2   1   0     1.200265844638   123.77646087     0.00000000
 H      1   2   3     1.088803522608   110.33570800     0.00000000
 H      1   2   3     1.094851694730   109.96107280   121.21638240
 H      1   2   3     1.094815188254   109.96340399   238.79421075
 H      2   1   3     1.109537795246   117.21919846   180.01568837

---------------------------
INTERNAL COORDINATES (A.U.)
---------------------------
 C      0   0   0     0.000000000000     0.00000000     0.00000000
 C      1   0   0     2.817627946747     0.00000000     0.00000000
 O      2   1   0     2.268173734265   123.77646087     0.00000000
 H      1   2   3     2.057540471378   110.33570800     0.00000000
 H      1   2   3     2.068969860300   109.96107280   121.21638240
 H      1   2   3     2.068900873058   109.96340399   238.79421075
 H      2   1   3     2.096722568249   117.21919846   180.01568837



           ************************************************************
           *        Program running with 6 parallel MPI-processes     *
[...]

 Dipole components along the rotational axes: 
x,y,z [a.u.] :     1.023947    -0.412952    -0.000034 
x,y,z [Debye]:     2.602665    -1.049641    -0.000086 

 


           ************************************************************
           *        Program running with 6 parallel MPI-processes     *
           *              working on a common directory               *
           ************************************************************

-------------------------------------------------------------------------------
                               ORCA SCF HESSIAN
-------------------------------------------------------------------------------

Hessian of the Kohn-Sham DFT energy:
Kohn-Sham wavefunction type                      ... RKS
Hartree-Fock exchange scaling                    ...    0.250
Number of operators                              ...    1
Number of atoms                                  ...    7
Basis set dimensions                             ...  117
Integral neglect threshold                       ... 2.5e-11
Integral primitive cutoff                        ... 2.5e-12

Setting up DFT Hessian calculations              ... 

HESS GRID
---------

General Integration Accuracy     IntAcc      ... 4.629
Radial Grid Type                 RadialGrid  ... OptM3 with GC (2021)
Angular Grid (max. ang.)         AngularGrid ... 5 (Lebedev-434)
Angular grid pruning method      GridPruning ... 4 (adaptive)
Weight generation scheme         WeightScheme... Becke
Basis function cutoff            BFCut       ... 1.0000e-11
Integration weight cutoff        WCut        ... 1.0000e-14
Angular grids for H and He will be reduced by one unit
Partially contracted basis set               ... off
Rotationally invariant grid construction     ... off

Total number of grid points                  ...    48862
Total number of batches                      ...      768
Average number of points per batch           ...       63
Average number of grid points per atom       ...     6980

Building densities                               ... done   (      0.0 sec)
Calculating rho(r) on the grid                   ... done   (      0.0 sec)
Building xc-kernel on the grid                   ... done   (      0.0 sec)
                                                     done   (      0.3 sec)

Nuclear repulsion Hessian  (SHARK)               ... done   (      0.0 sec)

----------------------------------------------
Forming right-hand sides of CP-SCF equations     ...
----------------------------------------------
One electron integral derivatives  (SHARK)       ... done   (      0.0 sec)
Transforming the overlap derivative matrices     ... done   (      0.0 sec)
Making the Q(x) pseudodensities                  ... done   (      0.0 sec)
Adding the E*S(x)*S(y) terms to the Hessian      ... done   (      0.0 sec)
Calculating energy weighted overlap derivatives  ... done   (      0.0 sec)
Two electron integral derivatives (SHARK-RI)     ... done   (      1.2 sec)
Exchange-correlation integral derivatives        ... done   (      2.8 sec)
tr(F(y)Q(x)) contribution to the Hessian         ... done   (      0.0 sec)
Response fock operator R(S(x)) (SHARK-RIJCOSX)   ... done   (      0.6 sec)
XC Response fock operator R(S(x))                ... done   (      0.6 sec)
tr(F(y)S(x)) contribution to the Hessian         ... done   (      0.0 sec)
Transforming and finalizing RHSs                 ... done   (      0.0 sec)

----------------------------------------------
Solving the CP-SCF equations (RIJCOSX)           ...
----------------------------------------------
     CP-SCF ITERATION   0:   3.5380e-01 (   0.3 sec   0/ 21 done)
     CP-SCF ITERATION   1:   4.0753e-02 (   0.3 sec   0/ 21 done)
     CP-SCF ITERATION   2:   1.1222e-02 (   0.4 sec   0/ 21 done)
     CP-SCF ITERATION   3:   2.6599e-03 (   0.3 sec   0/ 21 done)
     CP-SCF ITERATION   4:   7.1472e-04 (   0.3 sec   0/ 21 done)
     CP-SCF ITERATION   5:   2.0608e-04 (   0.3 sec  13/ 21 done)
     CP-SCF ITERATION   6:   5.0143e-05 (   0.2 sec  21/ 21 done)
                    *** THE CP-SCF HAS CONVERGED ***

                                                 ... done   (      2.4 sec)
Forming perturbed density Hessian contributions  ... done   (      0.0 sec)
2nd integral derivative contribs (SHARK-RI)      ... done   (      5.2 sec)
Exchange-correlation Hessian                     ... done   (      1.5 sec)
Dipole derivatives                               ... done   (      0.1 sec)

Total SCF Hessian time: 0 days 0 hours 0 min 15 sec 

Writing the Hessian file to the disk             ... done


Maximum memory used throughout the entire SCFHESS-calculation: 78.1 MB

-----------------------
VIBRATIONAL FREQUENCIES
-----------------------

Scaling factor for frequencies =  1.000000000  (already applied!)

   0:         0.00 cm**-1
   1:         0.00 cm**-1
   2:         0.00 cm**-1
   3:         0.00 cm**-1
   4:         0.00 cm**-1
   5:         0.00 cm**-1
   6:       160.15 cm**-1
   7:       509.27 cm**-1
   8:       770.74 cm**-1
   9:       897.73 cm**-1
  10:      1134.18 cm**-1
  11:      1136.47 cm**-1
  12:      1369.15 cm**-1
  13:      1422.62 cm**-1
  14:      1451.22 cm**-1
  15:      1460.47 cm**-1
  16:      1847.44 cm**-1
  17:      2888.56 cm**-1
  18:      3045.36 cm**-1
  19:      3110.41 cm**-1
  20:      3168.47 cm**-1


------------
NORMAL MODES
------------

These modes are the Cartesian displacements weighted by the diagonal matrix
M(i,i)=1/sqrt(m[i]) where m[i] is the mass of the displaced atom
Thus, these vectors are normalized but *not* orthogonal

                  0          1          2          3          4          5    
      0       0.000000   0.000000   0.000000   0.000000   0.000000   0.000000
      1       0.000000   0.000000   0.000000   0.000000   0.000000   0.000000
      2       0.000000   0.000000   0.000000   0.000000   0.000000   0.000000
      3       0.000000   0.000000   0.000000   0.000000   0.000000   0.000000
      4       0.000000   0.000000   0.000000   0.000000   0.000000   0.000000
      5       0.000000   0.000000   0.000000   0.000000   0.000000   0.000000
      6       0.000000   0.000000   0.000000   0.000000   0.000000   0.000000
      7       0.000000   0.000000   0.000000   0.000000   0.000000   0.000000
      8       0.000000   0.000000   0.000000   0.000000   0.000000   0.000000
      9       0.000000   0.000000   0.000000   0.000000   0.000000   0.000000
     10       0.000000   0.000000   0.000000   0.000000   0.000000   0.000000
     11       0.000000   0.000000   0.000000   0.000000   0.000000   0.000000
     12       0.000000   0.000000   0.000000   0.000000   0.000000   0.000000
     13       0.000000   0.000000   0.000000   0.000000   0.000000   0.000000
     14       0.000000   0.000000   0.000000   0.000000   0.000000   0.000000
     15       0.000000   0.000000   0.000000   0.000000   0.000000   0.000000
     16       0.000000   0.000000   0.000000   0.000000   0.000000   0.000000
     17       0.000000   0.000000   0.000000   0.000000   0.000000   0.000000
     18       0.000000   0.000000   0.000000   0.000000   0.000000   0.000000
     19       0.000000   0.000000   0.000000   0.000000   0.000000   0.000000
     20       0.000000   0.000000   0.000000   0.000000   0.000000   0.000000
                  6          7          8          9         10         11    
      0       0.000243   0.139757  -0.010366   0.216340   0.094198  -0.020139
      1       0.000562  -0.078506  -0.026481  -0.114602   0.153836  -0.050321
      2       0.001487   0.008923  -0.069156   0.011190  -0.074470  -0.127794
      3      -0.015088   0.087578  -0.008303  -0.136215  -0.198731   0.032514
      4      -0.038213   0.168158  -0.020903  -0.012544  -0.119267   0.079216
      5      -0.100055  -0.077476  -0.054709   0.025397   0.077882   0.204069
      6       0.011541  -0.214594   0.003795  -0.090873   0.049752  -0.007207
      7       0.029307  -0.017504   0.009745   0.062656   0.013677  -0.017286
      8       0.076682   0.039071   0.025446  -0.010237  -0.013244  -0.044844
      9      -0.058858   0.693284   0.039451  -0.231046   0.828065   0.036290
     10      -0.149294  -0.299273   0.100097   0.075862  -0.142481   0.109747
     11      -0.390530   0.009827   0.261860   0.005630  -0.067321   0.284776
     12      -0.084859  -0.140481  -0.478067   0.552668  -0.107089  -0.359738
     13       0.559544  -0.285171   0.045162   0.185299  -0.223776   0.139555
     14       0.174483   0.110914   0.200631  -0.099730  -0.038807   0.108855
     15       0.181884  -0.135804   0.516230   0.537799  -0.063394   0.388831
     16      -0.314120  -0.272380   0.050184   0.149577  -0.133304  -0.066893
     17       0.468148   0.143574   0.048646  -0.193128   0.203062   0.072510
     18      -0.044449   0.280189   0.084598  -0.371824  -0.201655  -0.098444
     19      -0.112647   0.066386   0.214509   0.109808  -0.129449  -0.252347
     20      -0.294694  -0.067592   0.560907   0.013756   0.072622  -0.663253
                 12         13         14         15         16         17    
      0       0.153557   0.033072   0.033718  -0.007178  -0.040039   0.000062
      1       0.002922  -0.041336   0.037755  -0.018128   0.032416   0.003550
      2      -0.024330   0.010804  -0.019471  -0.047484  -0.006349  -0.001366
      3      -0.015104  -0.078702  -0.003350  -0.004127   0.439847  -0.038504
      4      -0.009087  -0.029440  -0.011411  -0.010484  -0.525315  -0.065945
      5       0.005754   0.023128   0.004897  -0.027417   0.134370   0.031028
      6       0.002835  -0.003207  -0.018137   0.000438  -0.271983   0.001635
      7      -0.011805   0.066818   0.031435   0.001171   0.369922  -0.001605
      8       0.004088  -0.025054  -0.009285   0.002991  -0.100324   0.000367
      9      -0.373039  -0.049917  -0.434413   0.099985   0.223676  -0.003458
     10       0.207534  -0.004134   0.210301   0.253986  -0.098051  -0.012982
     11      -0.022807   0.009152  -0.015354   0.664156   0.003694   0.005490
     12      -0.508315  -0.059114   0.042632   0.320490  -0.128119   0.009418
     13       0.069680   0.187388  -0.580059   0.344778   0.109256  -0.006107
     14       0.318195   0.107598  -0.147101  -0.121994   0.067285   0.035581
     15      -0.577547  -0.103071   0.136590  -0.305056  -0.151236   0.000471
     16      -0.105791   0.076015  -0.342641  -0.307176   0.050687  -0.028773
     17      -0.140382  -0.183748   0.472534   0.222217  -0.086214  -0.023746
     18      -0.235844   0.806717   0.181198   0.012335  -0.391384   0.425673
     19       0.089405  -0.476451  -0.100435   0.030768  -0.060070   0.816806
     20       0.001456   0.060339   0.010951   0.080644   0.082127  -0.376592
                 18         19         20    
      0      -0.047714   0.012533   0.009893
      1       0.018554   0.031953   0.085824
      2      -0.000065   0.083722  -0.034216
      3       0.002554   0.000171   0.000085
      4       0.003180   0.000415   0.004573
      5      -0.001603   0.001084  -0.001762
      6       0.000196   0.000031   0.000389
      7      -0.000538   0.000080  -0.001022
      8       0.000175   0.000208   0.000332
      9       0.139767   0.002965  -0.309841
     10       0.372418   0.007541  -0.776769
     11      -0.163465   0.015601   0.343692
     12       0.280267  -0.321632   0.134193
     13      -0.115252   0.146578  -0.042404
     14       0.561537  -0.607789   0.257262
     15       0.135033   0.166977   0.066936
     16      -0.479324  -0.540669  -0.214173
     17      -0.394808  -0.420662  -0.190547
     18      -0.020065  -0.000177  -0.016359
     19      -0.028270  -0.000413  -0.027574
     20       0.013843  -0.000973   0.013013


-----------
IR SPECTRUM
-----------

 Mode   freq       eps      Int      T**2         TX        TY        TZ
       cm**-1   L/(mol*cm) km/mol    a.u.
----------------------------------------------------------------------------
  6:    160.15   0.000149    0.75  0.000290  (-0.002391 -0.006054 -0.015743)
  7:    509.27   0.002656   13.42  0.001627  ( 0.038114  0.009358 -0.009331)
  8:    770.74   0.000248    1.25  0.000101  ( 0.001401  0.003579  0.009261)
  9:    897.73   0.001499    7.58  0.000521  (-0.022583  0.002075  0.002625)
 10:   1134.18   0.004969   25.11  0.001367  (-0.034967 -0.008441  0.008567)
 11:   1136.47   0.000082    0.41  0.000022  ( 0.000962  0.001738  0.004297)
 12:   1369.15   0.005837   29.50  0.001330  (-0.035316  0.008917  0.001939)
 13:   1422.62   0.002200   11.12  0.000483  (-0.021449 -0.002340  0.004138)
 14:   1451.22   0.004465   22.57  0.000960  ( 0.006976 -0.028545  0.009834)
 15:   1460.47   0.002273   11.48  0.000486  ( 0.003077  0.007762  0.020393)
 16:   1847.44   0.037790  190.98  0.006383  ( 0.057357 -0.054291  0.012085)
 17:   2888.56   0.023797  120.26  0.002571  (-0.023679 -0.040569  0.019087)
 18:   3045.36   0.000264    1.34  0.000027  (-0.002321  0.004450 -0.001374)
 19:   3110.41   0.000891    4.50  0.000089  ( 0.001279  0.003378  0.008740)
 20:   3168.47   0.001401    7.08  0.000138  ( 0.005039  0.009625 -0.004467)

* The epsilon (eps) is given for a Dirac delta lineshape.
** The dipole moment derivative (T) already includes vibrational overlap.

The first frequency considered to be a vibration is 6
The total number of vibrations considered is 15


--------------------------
THERMOCHEMISTRY AT 298.15K
--------------------------

Temperature         ... 298.15 K
Pressure            ... 1.00 atm
Total Mass          ... 44.05 AMU

Throughout the following assumptions are being made:
  (1) The electronic state is orbitally nondegenerate
  (2) There are no thermally accessible electronically excited states
  (3) Hindered rotations indicated by low frequency modes are not
      treated as such but are treated as vibrations and this may
      cause some error
  (4) All equations used are the standard statistical mechanics
      equations for an ideal gas
  (5) All vibrations are strictly harmonic

freq.     160.15  E(vib)   ...       0.39 
freq.     509.27  E(vib)   ...       0.14 
freq.     770.74  E(vib)   ...       0.05 
freq.     897.73  E(vib)   ...       0.03 
freq.    1134.18  E(vib)   ...       0.01 
freq.    1136.47  E(vib)   ...       0.01 
freq.    1369.15  E(vib)   ...       0.01 
freq.    1422.62  E(vib)   ...       0.00 
freq.    1451.22  E(vib)   ...       0.00 
freq.    1460.47  E(vib)   ...       0.00 
freq.    1847.44  E(vib)   ...       0.00 
freq.    2888.56  E(vib)   ...       0.00 
freq.    3045.36  E(vib)   ...       0.00 
freq.    3110.41  E(vib)   ...       0.00 
freq.    3168.47  E(vib)   ...       0.00 

------------
INNER ENERGY
------------

The inner energy is: U= E(el) + E(ZPE) + E(vib) + E(rot) + E(trans)
    E(el)   - is the total energy from the electronic structure calculation
              = E(kin-el) + E(nuc-el) + E(el-el) + E(nuc-nuc)
    E(ZPE)  - the the zero temperature vibrational energy from the frequency calculation
    E(vib)  - the the finite temperature correction to E(ZPE) due to population
              of excited vibrational states
    E(rot)  - is the rotational thermal energy
    E(trans)- is the translational thermal energy

Summary of contributions to the inner energy U:
Electronic energy                ...   -153.71303997 Eh
Zero point energy                ...      0.05552403 Eh      34.84 kcal/mol
Thermal vibrational correction   ...      0.00105655 Eh       0.66 kcal/mol
Thermal rotational correction    ...      0.00141627 Eh       0.89 kcal/mol
Thermal translational correction ...      0.00141627 Eh       0.89 kcal/mol
-----------------------------------------------------------------------
Total thermal energy                   -153.65362686 Eh


Summary of corrections to the electronic energy:
(perhaps to be used in another calculation)
Total thermal correction                  0.00388909 Eh       2.44 kcal/mol
Non-thermal (ZPE) correction              0.05552403 Eh      34.84 kcal/mol
-----------------------------------------------------------------------
Total correction                          0.05941312 Eh      37.28 kcal/mol


--------
ENTHALPY
--------

The enthalpy is H = U + kB*T
                kB is Boltzmann's constant
Total free energy                 ...   -153.65362686 Eh 
Thermal Enthalpy correction       ...      0.00094421 Eh       0.59 kcal/mol
-----------------------------------------------------------------------
Total Enthalpy                    ...   -153.65268265 Eh


Note: Only C1 symmetry has been detected, increase convergence thresholds 
      if your molecule has a higher symmetry. Symmetry factor of 1.0 is   
      used for the rotational entropy correction. 
 

Note: Rotational entropy computed according to Herzberg 
Infrared and Raman Spectra, Chapter V,1, Van Nostrand Reinhold, 1945 
Point Group:  C1, Symmetry Number:   1  
Rotational constants in cm-1:     1.917540     0.341732     0.306399 

Vibrational entropy computed according to the QRRHO of S. Grimme
Chem.Eur.J. 2012 18 9955


-------
ENTROPY
-------

The entropy contributions are T*S = T*(S(el)+S(vib)+S(rot)+S(trans))
     S(el)   - electronic entropy
     S(vib)  - vibrational entropy
     S(rot)  - rotational entropy
     S(trans)- translational entropy
The entropies will be listed as multiplied by the temperature to get
units of energy

Electronic entropy                ...      0.00000000 Eh      0.00 kcal/mol
Vibrational entropy               ...      0.00176397 Eh      1.11 kcal/mol
Rotational entropy                ...      0.01026878 Eh      6.44 kcal/mol
Translational entropy             ...      0.01771022 Eh     11.11 kcal/mol
-----------------------------------------------------------------------
Final entropy term                ...      0.02974297 Eh     18.66 kcal/mol

In case the symmetry of your molecule has not been determined correctly
or in case you have a reason to use a different symmetry number we print 
out the resulting rotational entropy values for sn=1,12 :
 --------------------------------------------------------
|  sn= 1 | S(rot)=       0.01026878 Eh      6.44 kcal/mol|
|  sn= 2 | S(rot)=       0.00961432 Eh      6.03 kcal/mol|
|  sn= 3 | S(rot)=       0.00923149 Eh      5.79 kcal/mol|
|  sn= 4 | S(rot)=       0.00895986 Eh      5.62 kcal/mol|
|  sn= 5 | S(rot)=       0.00874918 Eh      5.49 kcal/mol|
|  sn= 6 | S(rot)=       0.00857703 Eh      5.38 kcal/mol|
|  sn= 7 | S(rot)=       0.00843149 Eh      5.29 kcal/mol|
|  sn= 8 | S(rot)=       0.00830541 Eh      5.21 kcal/mol|
|  sn= 9 | S(rot)=       0.00819420 Eh      5.14 kcal/mol|
|  sn=10 | S(rot)=       0.00809472 Eh      5.08 kcal/mol|
|  sn=11 | S(rot)=       0.00800473 Eh      5.02 kcal/mol|
|  sn=12 | S(rot)=       0.00792257 Eh      4.97 kcal/mol|
 --------------------------------------------------------


-------------------
GIBBS FREE ENERGY
-------------------

The Gibbs free energy is G = H - T*S

Total enthalpy                    ...   -153.65268265 Eh 
Total entropy correction          ...     -0.02974297 Eh    -18.66 kcal/mol
-----------------------------------------------------------------------
Final Gibbs free energy         ...   -153.68242561 Eh

For completeness - the Gibbs free energy minus the electronic energy
G-E(el)                           ...      0.03061436 Eh     19.21 kcal/mol


Timings for individual modules:

Sum of individual times         ...       47.590 sec (=   0.793 min)
GTO integral calculation        ...        1.970 sec (=   0.033 min)   4.1 %
SCF iterations                  ...       22.878 sec (=   0.381 min)  48.1 %
SCF Gradient evaluation         ...        7.427 sec (=   0.124 min)  15.6 %
Geometry relaxation             ...        0.074 sec (=   0.001 min)   0.2 %
Analytical frequency calculation...       15.241 sec (=   0.254 min)  32.0 %
                             ****ORCA TERMINATED NORMALLY****
TOTAL RUN TIME: 0 days 0 hours 0 minutes 48 seconds 696 msec
