
                                 *****************
                                 * O   R   C   A *
                                 *****************

           --- An Ab Initio, DFT and Semiempirical electronic structure package ---

                  #######################################################
                  #                        -***-                        #
                  #          Department of theory and spectroscopy      #
                  #               Directorship: Frank Neese             #
                  #        Max Planck Institute fuer Kohlenforschung    #
                  #                Kaiser Wilhelm Platz 1               #
                  #                 D-45470 Muelheim/Ruhr               #
                  #                      Germany                        #
                  #                                                     #
                  #                  All rights reserved                #
                  #                        -***-                        #
                  #######################################################


                         Program Version 4.2.1 -  RELEASE  -


 With contributions from (in alphabetic order):
   Daniel Aravena         : Magnetic Suceptibility
   Michael Atanasov       : Ab Initio Ligand Field Theory (pilot matlab implementation)
   Alexander A. Auer      : GIAO ZORA, VPT2
   Ute Becker             : Parallelization
   Giovanni Bistoni       : ED, misc. LED, open-shell LED, HFLD
   Martin Brehm           : Molecular dynamics
   Dmytro Bykov           : SCF Hessian
   Vijay G. Chilkuri      : MRCI spin determinant printing, contributions to CSF-ICE
   Dipayan Datta          : RHF DLPNO-CCSD density
   Achintya Kumar Dutta   : EOM-CC, STEOM-CC
   Dmitry Ganyushin       : Spin-Orbit,Spin-Spin,Magnetic field MRCI
   Miquel Garcia          : C-PCM Hessian, Gaussian charge scheme
   Yang Guo               : DLPNO-NEVPT2, CIM, IAO-localization
   Andreas Hansen         : Spin unrestricted coupled pair/coupled cluster methods
   Benjamin Helmich-Paris : CASSCF linear response (MC-RPA)
   Lee Huntington         : MR-EOM, pCC
   Robert Izsak           : Overlap fitted RIJCOSX, COSX-SCS-MP3, EOM
   Christian Kollmar      : KDIIS, OOCD, Brueckner-CCSD(T), CCSD density
   Simone Kossmann        : Meta GGA functionals, TD-DFT gradient, OOMP2, MP2 Hessian
   Martin Krupicka        : AUTO-CI
   Lucas Lang             : DCDCAS
   Dagmar Lenk            : GEPOL surface, SMD
   Dimitrios Liakos       : Extrapolation schemes; Compound Job, initial MDCI parallelization
   Dimitrios Manganas     : Further ROCIS development; embedding schemes
   Dimitrios Pantazis     : SARC Basis sets
   Taras Petrenko         : DFT Hessian,TD-DFT gradient, ASA, ECA, R-Raman, ABS, FL, XAS/XES, NRVS
   Peter Pinski           : DLPNO-MP2, DLPNO-MP2 Gradient
   Christoph Reimann      : Effective Core Potentials
   Marius Retegan         : Local ZFS, SOC
   Christoph Riplinger    : Optimizer, TS searches, QM/MM, DLPNO-CCSD(T), (RO)-DLPNO pert. Triples
   Tobias Risthaus        : Range-separated hybrids, TD-DFT gradient, RPA, STAB
   Michael Roemelt        : Original ROCIS implementation
   Masaaki Saitow         : Open-shell DLPNO-CCSD energy and density
   Barbara Sandhoefer     : DKH picture change effects
   Avijit Sen             : IP-ROCIS
   Kantharuban Sivalingam : CASSCF convergence, NEVPT2, FIC-MRCI
   Bernardo de Souza      : ESD, SOC TD-DFT
   Georgi Stoychev        : AutoAux, RI-MP2 NMR
   Willem Van den Heuvel  : Paramagnetic NMR
   Boris Wezisla          : Elementary symmetry handling
   Frank Wennmohs         : Technical directorship


 We gratefully acknowledge several colleagues who have allowed us to
 interface, adapt or use parts of their codes:
   Stefan Grimme, W. Hujo, H. Kruse,             : VdW corrections, initial TS optimization,
                  C. Bannwarth                     DFT functionals, gCP, sTDA/sTD-DF
   Ed Valeev, F. Pavosevic, A. Kumar             : LibInt (2-el integral package), F12 methods
   Garnet Chan, S. Sharma, J. Yang, R. Olivares  : DMRG
   Ulf Ekstrom                                   : XCFun DFT Library
   Mihaly Kallay                                 : mrcc  (arbitrary order and MRCC methods)
   Andreas Klamt, Michael Diedenhofen            : otool_cosmo (COSMO solvation model)
   Jiri Pittner, Ondrej Demel                    : Mk-CCSD
   Frank Weinhold                                : gennbo (NPA and NBO analysis)
   Christopher J. Cramer and Donald G. Truhlar   : smd solvation model
   Lars Goerigk                                  : TD-DFT with DH, B97 family of functionals
   V. Asgeirsson, H. Jonsson                     : NEB implementation
   FAccTs GmbH                                   : IRC, NEB, NEB-TS, Multilevel, MM, QM/MM, CI optimization
   S Lehtola, MJT Oliveira, MAL Marques          : LibXC Library


 Your calculation uses the libint2 library for the computation of 2-el integrals
 For citations please refer to: http://libint.valeyev.net

 Your ORCA version has been built with support for libXC version: 4.2.3
 For citations please refer to: https://tddft.org/programs/libxc/

 This ORCA versions uses:
   CBLAS   interface :  Fast vector & matrix operations
   LAPACKE interface :  Fast linear algebra routines
   SCALAPACK package :  Parallel linear algebra routines




***************************************
The coordinates will be read from file: carbon_monoxide.xyz
***************************************


----- Orbital basis set information -----
Your calculation utilizes the basis: cc-pVDZ 
       H, B-Ne : Obtained from the ccRepo (grant-hill.group.shef.ac.uk/ccrepo) Feb. 2017
                 T. H. Dunning, Jr., J. Chem. Phys. 90, 1007 (1989)
            He : Obtained from the ccRepo (grant-hill.group.shef.ac.uk/ccrepo) Feb. 2017
                 D. E. Woon, T. H. Dunning, Jr., J. Chem. Phys. 100, 2975 (1994)
  Li-Be, Na-Mg : Obtained from the ccRepo (grant-hill.group.shef.ac.uk/ccrepo) Feb. 2017
                 B. P. Prascher, D. E. Woon, K. A. Peterson, T. H. Dunning, Jr., A. K. Wilson, Theor. Chem. Acc. 128, 69 (2011)
         Al-Ar : Obtained from the ccRepo (grant-hill.group.shef.ac.uk/ccrepo) Feb. 2017
                 D. E. Woon, T. H. Dunning, Jr., J. Chem. Phys. 98, 1358 (1993)
            Ca : Obtained from the Peterson Research Group Website (tyr0.chem.wsu.edu/~kipeters) Feb. 2017
                 J. Koput, K. A. Peterson, J. Phys. Chem. 106, 9595 (2002)
         Sc-Zn : Obtained from the ccRepo (grant-hill.group.shef.ac.uk/ccrepo) Feb. 2017
                 N. B. Balabanov, K. A. Peterson, J. Chem. Phys. 123, 064107 (2005)
                 N. B. Balabanov, K. A. Peterson, J. Chem. Phys. 125, 074110 (2006)
         Ga-Kr : Obtained from the ccRepo (grant-hill.group.shef.ac.uk/ccrepo) Feb. 2017
                 A. K. Wilson, D. E. Woon, K. A. Peterson, T. H. Dunning, Jr., J. Chem. Phys. 110, 7667 (1999)

================================================================================
                                        WARNINGS
                       Please study these warnings very carefully!
================================================================================


WARNING: Geometry Optimization
  ===> : Switching off AutoStart
         For restart on a previous wavefunction, please use MOREAD

INFO   : the flag for use of LIBINT has been found!

================================================================================
                                       INPUT FILE
================================================================================
NAME = .inp
|  1> # carbon_monoxide OPT with B3LYP/cc-pVDZ
|  2> 
|  3> ! B3LYP cc-pVDZ TightSCF Opt PAL4
|  4> 
|  5> * xyzfile 0 1 carbon_monoxide.xyz
|  6> 
|  7> 
|  8>                          ****END OF INPUT****
================================================================================

                       *****************************
                       * Geometry Optimization Run *
                       *****************************

Geometry optimization settings:
Update method            Update   .... BFGS
Choice of coordinates    CoordSys .... Z-matrix Internals
Initial Hessian          InHess   .... Almoef's Model

Convergence Tolerances:
Energy Change            TolE     ....  5.0000e-06 Eh
Max. Gradient            TolMAXG  ....  3.0000e-04 Eh/bohr
RMS Gradient             TolRMSG  ....  1.0000e-04 Eh/bohr
Max. Displacement        TolMAXD  ....  4.0000e-03 bohr
RMS Displacement         TolRMSD  ....  2.0000e-03 bohr
Strict Convergence                ....  False
------------------------------------------------------------------------------
                        ORCA OPTIMIZATION COORDINATE SETUP
------------------------------------------------------------------------------

The optimization will be done in new redundant internal coordinates
Making redundant internal coordinates   ...  (new redundants) done
Evaluating the initial hessian          ...  (Almloef) done
Evaluating the coordinates              ...  done
Calculating the B-matrix                .... done
Calculating the G-matrix                .... done
Diagonalizing the G-matrix              .... done
The first mode is                       ....    0
The number of degrees of freedom        ....    1

    -----------------------------------------------------------------
                    Redundant Internal Coordinates


    -----------------------------------------------------------------
         Definition                    Initial Value    Approx d2E/dq
    -----------------------------------------------------------------
      1. B(O   1,C   0)                  1.5400         0.322523   
    -----------------------------------------------------------------

Number of atoms                         .... 2
Number of degrees of freedom            .... 1

         *************************************************************
         *                GEOMETRY OPTIMIZATION CYCLE   1            *
         *************************************************************
---------------------------------
CARTESIAN COORDINATES (ANGSTROEM)
---------------------------------
  C    -28.083330   12.166670    0.000000
  O    -26.543330   12.166670    0.000000

----------------------------
CARTESIAN COORDINATES (A.U.)
----------------------------
  NO LB      ZA    FRAG     MASS         X           Y           Z
   0 C     6.0000    0    12.011  -53.069803   22.991674    0.000000
   1 O     8.0000    0    15.999  -50.159624   22.991674    0.000000

--------------------------------
INTERNAL COORDINATES (ANGSTROEM)
--------------------------------
 C      0   0   0     0.000000000000     0.00000000     0.00000000
 O      1   0   0     1.540000000000     0.00000000     0.00000000

---------------------------
INTERNAL COORDINATES (A.U.)
---------------------------
 C      0   0   0     0.000000000000     0.00000000     0.00000000
 O      1   0   0     2.910178246239     0.00000000     0.00000000

---------------------
BASIS SET INFORMATION
---------------------
There are 2 groups of distinct atoms

 Group   1 Type C   : 17s4p1d contracted to 3s2p1d pattern {881/31/1}
 Group   2 Type O   : 17s4p1d contracted to 3s2p1d pattern {881/31/1}

Atom   0C    basis set group =>   1
Atom   1O    basis set group =>   2


           ************************************************************
           *        Program running with 4 parallel MPI-processes     *
           *              working on a common directory               *
           ************************************************************
------------------------------------------------------------------------------
                           ORCA GTO INTEGRAL CALCULATION
------------------------------------------------------------------------------

                         BASIS SET STATISTICS AND STARTUP INFO

 # of primitive gaussian shells          ...   44
 # of primitive gaussian functions       ...   68
 # of contracted shells                  ...   12
 # of contracted basis functions         ...   28
 Highest angular momentum                ...    2
 Maximum contraction depth               ...    8
 Integral package used                   ... LIBINT
 Integral threshhold            Thresh   ...  2.500e-11
 Primitive cut-off              TCut     ...  2.500e-12


------------------------------ INTEGRAL EVALUATION ----------------------------


 * One electron integrals 
 Pre-screening matrix                    ... done
 Shell pair data                         ... done (   0.000 sec)



           ************************************************************
           *        Program running with 4 parallel MPI-processes     *
           *              working on a common directory               *
           ************************************************************
-------------------------------------------------------------------------------
                                 ORCA SCF
-------------------------------------------------------------------------------

------------
SCF SETTINGS
------------
Hamiltonian:
 Density Functional     Method          .... DFT(GTOs)
 Exchange Functional    Exchange        .... B88
   X-Alpha parameter    XAlpha          ....  0.666667
   Becke's b parameter  XBeta           ....  0.004200
 Correlation Functional Correlation     .... LYP
 LDA part of GGA corr.  LDAOpt          .... VWN-5
 Gradients option       PostSCFGGA      .... off
 Hybrid DFT is turned on
   Fraction HF Exchange ScalHFX         ....  0.200000
   Scaling of DF-GGA-X  ScalDFX         ....  0.720000
   Scaling of DF-GGA-C  ScalDFC         ....  0.810000
   Scaling of DF-LDA-C  ScalLDAC        ....  1.000000
   Perturbative correction              ....  0.000000
   Density functional embedding theory  .... OFF
   NL short-range parameter             ....  4.800000


General Settings:
 Integral files         IntName         .... .inp
 Hartree-Fock type      HFTyp           .... RHF
 Total Charge           Charge          ....    0
 Multiplicity           Mult            ....    1
 Number of Electrons    NEL             ....   14
 Basis Dimension        Dim             ....   28
 Nuclear Repulsion      ENuc            ....     16.4938350639 Eh

Convergence Acceleration:
 DIIS                   CNVDIIS         .... on
   Start iteration      DIISMaxIt       ....    12
   Startup error        DIISStart       ....  0.200000
   # of expansion vecs  DIISMaxEq       ....     5
   Bias factor          DIISBfac        ....   1.050
   Max. coefficient     DIISMaxC        ....  10.000
 Newton-Raphson         CNVNR           .... off
 SOSCF                  CNVSOSCF        .... on
   Start iteration      SOSCFMaxIt      ....   150
   Startup grad/error   SOSCFStart      ....  0.003300
 Level Shifting         CNVShift        .... on
   Level shift para.    LevelShift      ....    0.2500
   Turn off err/grad.   ShiftErr        ....    0.0010
 Zerner damping         CNVZerner       .... off
 Static damping         CNVDamp         .... on
   Fraction old density DampFac         ....    0.7000
   Max. Damping (<1)    DampMax         ....    0.9800
   Min. Damping (>=0)   DampMin         ....    0.0000
   Turn off err/grad.   DampErr         ....    0.1000
 Fernandez-Rico         CNVRico         .... off

SCF Procedure:
 Maximum # iterations   MaxIter         ....   125
 SCF integral mode      SCFMode         .... Direct
   Integral package                     .... LIBINT
 Reset frequency        DirectResetFreq ....    20
 Integral Threshold     Thresh          ....  2.500e-11 Eh
 Primitive CutOff       TCut            ....  2.500e-12 Eh

Convergence Tolerance:
 Convergence Check Mode ConvCheckMode   .... Total+1el-Energy
 Convergence forced     ConvForced      .... 0
 Energy Change          TolE            ....  1.000e-08 Eh
 1-El. energy change                    ....  1.000e-05 Eh
 Orbital Gradient       TolG            ....  1.000e-05
 Orbital Rotation angle TolX            ....  1.000e-05
 DIIS Error             TolErr          ....  5.000e-07


Diagonalization of the overlap matrix:
Smallest eigenvalue                        ... 3.777e-02
Time for diagonalization                   ...    0.001 sec
Threshold for overlap eigenvalues          ... 1.000e-08
Number of eigenvalues below threshold      ... 0
Time for construction of square roots      ...    0.000 sec
Total time needed                          ...    0.001 sec

-------------------
DFT GRID GENERATION
-------------------

General Integration Accuracy     IntAcc      ...  4.340
Radial Grid Type                 RadialGrid  ... Gauss-Chebyshev
Angular Grid (max. acc.)         AngularGrid ... Lebedev-110
Angular grid pruning method      GridPruning ... 3 (G Style)
Weight generation scheme         WeightScheme... Becke
Basis function cutoff            BFCut       ...    1.0000e-11
Integration weight cutoff        WCut        ...    1.0000e-14
Grids for H and He will be reduced by one unit

# of grid points (after initial pruning)     ...   3372 (   0.0 sec)
# of grid points (after weights+screening)   ...   3349 (   0.0 sec)
nearest neighbour list constructed           ...    0.0 sec
Grid point re-assignment to atoms done       ...    0.0 sec
Grid point division into batches done        ...    0.0 sec
Reduced shell lists constructed in    0.0 sec

Total number of grid points                  ...     3349
Total number of batches                      ...       54
Average number of points per batch           ...       62
Average number of grid points per atom       ...     1674
Average number of shells per batch           ...     9.73 (81.11%)
Average number of basis functions per batch  ...    22.93 (81.90%)
Average number of large shells per batch     ...     7.73 (79.45%)
Average number of large basis fcns per batch ...    18.13 (79.07%)
Maximum spatial batch extension              ...  17.10, 23.60, 31.36 au
Average spatial batch extension              ...   2.76,  3.09,  3.48 au

Time for grid setup =    0.008 sec

------------------------------
INITIAL GUESS: MODEL POTENTIAL
------------------------------
Loading Hartree-Fock densities                     ... done
Calculating cut-offs                               ... done
Setting up the integral package                    ... done
Initializing the effective Hamiltonian             ... done
Starting the Coulomb interaction                   ... done (   0.0 sec)
Reading the grid                                   ... done
Mapping shells                                     ... done
Starting the XC term evaluation                    ... done (   0.0 sec)
  promolecular density results
     # of electrons  =     14.000039029
     EX              =    -13.104940299
     EC              =     -0.471576807
     EX+EC           =    -13.576517105
Transforming the Hamiltonian                       ... done (   0.0 sec)
Diagonalizing the Hamiltonian                      ... done (   0.0 sec)
Back transforming the eigenvectors                 ... done (   0.0 sec)
Now organizing SCF variables                       ... done
                      ------------------
                      INITIAL GUESS DONE (   0.1 sec)
                      ------------------
--------------
SCF ITERATIONS
--------------
ITER       Energy         Delta-E        Max-DP      RMS-DP      [F,P]     Damp
               ***  Starting incremental Fock matrix formation  ***
  0   -112.8965672798   0.000000000000 0.18236394  0.01805928  0.4826246 0.7000
  1   -112.9885258891  -0.091958609310 0.03132137  0.00322420  0.1002122 0.7000
                               ***Turning on DIIS***
  2   -113.0086380816  -0.020112192513 0.04267961  0.00412525  0.1401128 0.7000
  3   -113.0463007101  -0.037662628461 0.07694381  0.00606474  0.0234297 0.0000
  4   -113.0878970896  -0.041596379540 0.00783427  0.00067372  0.1614399 0.7000
  5   -113.0923904142  -0.004493324590 0.00841619  0.00076139  0.1418547 0.7000
  6   -113.0969099073  -0.004519493058 0.00747720  0.00070797  0.1196182 0.7000
  7   -113.1005068480  -0.003596940746 0.01868220  0.00192140  0.0991099 0.0000
  8   -113.1075693235  -0.007062475477 0.01642978  0.00131402  0.0410349 0.0000
  9   -113.1089620122  -0.001392688663 0.00383988  0.00032633  0.0134154 0.0000
 10   -113.1091191866  -0.000157174436 0.00145693  0.00016797  0.0058093 0.0000
                      *** Initiating the SOSCF procedure ***
                           *** Shutting down DIIS ***
                      *** Re-Reading the Fockian *** 
                      *** Removing any level shift *** 
ITER      Energy       Delta-E        Grad      Rot      Max-DP    RMS-DP
 11   -113.10915125  -0.0000320603  0.000259  0.000259  0.000633  0.000060
               *** Restarting incremental Fock matrix formation ***
 12   -113.10915607  -0.0000048229  0.000428  0.001851  0.002108  0.000191
 13   -113.10913677   0.0000193042  0.001992  0.001336  0.001685  0.000153
 14   -113.10915718  -0.0000204122  0.000031  0.000070  0.000116  0.000009
 15   -113.10915719  -0.0000000102  0.000013  0.000014  0.000030  0.000003
                  ***Gradient check signals convergence***
              ***Rediagonalizing the Fockian in SOSCF/NRSCF***

               *****************************************************
               *                     SUCCESS                       *
               *           SCF CONVERGED AFTER  16 CYCLES          *
               *****************************************************

Setting up the final grid:

General Integration Accuracy     IntAcc      ...  4.670
Radial Grid Type                 RadialGrid  ... Gauss-Chebyshev
Angular Grid (max. acc.)         AngularGrid ... Lebedev-302
Angular grid pruning method      GridPruning ... 3 (G Style)
Weight generation scheme         WeightScheme... Becke
Basis function cutoff            BFCut       ...    1.0000e-11
Integration weight cutoff        WCut        ...    1.0000e-14
Grids for H and He will be reduced by one unit

# of grid points (after initial pruning)     ...  12424 (   0.0 sec)
# of grid points (after weights+screening)   ...  12397 (   0.0 sec)
nearest neighbour list constructed           ...    0.0 sec
Grid point re-assignment to atoms done       ...    0.0 sec
Grid point division into batches done        ...    0.1 sec
Reduced shell lists constructed in    0.1 sec

Total number of grid points                  ...    12397
Total number of batches                      ...      194
Average number of points per batch           ...       63
Average number of grid points per atom       ...     6198
Average number of shells per batch           ...     7.46 (62.17%)
Average number of basis functions per batch  ...    17.26 (61.64%)
Average number of large shells per batch     ...     6.16 (82.57%)
Average number of large basis fcns per batch ...    14.52 (84.13%)
Maximum spatial batch extension              ...  16.07, 20.64, 19.94 au
Average spatial batch extension              ...   1.67,  1.93,  1.84 au

Final grid set up in    0.1 sec
Final integration                            ... done (   0.0 sec)
Change in XC energy                          ...     0.000007018
Integrated number of electrons               ...    13.999997952
Previous integrated no of electrons          ...    14.000195552

----------------
TOTAL SCF ENERGY
----------------

Total Energy       :         -113.10915017 Eh           -3077.85645 eV

Components:
Nuclear Repulsion  :           16.49383506 Eh             448.82007 eV
Electronic Energy  :         -129.60298524 Eh           -3526.67652 eV
One Electron Energy:         -186.70765834 Eh           -5080.57367 eV
Two Electron Energy:           57.10467310 Eh            1553.89715 eV

Virial components:
Potential Energy   :         -224.92856692 Eh           -6120.61747 eV
Kinetic Energy     :          111.81941675 Eh            3042.76102 eV
Virial Ratio       :            2.01153407


DFT components:
N(Alpha)           :        6.999998975763 electrons
N(Beta)            :        6.999998975763 electrons
N(Total)           :       13.999997951526 electrons
E(X)               :      -10.412844647220 Eh       
E(C)               :       -0.559141553675 Eh       
E(XC)              :      -10.971986200894 Eh       
DFET-embed. en.    :        0.000000000000 Eh       

---------------
SCF CONVERGENCE
---------------

  Last Energy change         ...   -1.7041e-09  Tolerance :   1.0000e-08
  Last MAX-Density change    ...    3.0297e-06  Tolerance :   1.0000e-07
  Last RMS-Density change    ...    2.8075e-07  Tolerance :   5.0000e-09
  Last Orbital Gradient      ...    8.8132e-07  Tolerance :   1.0000e-05
  Last Orbital Rotation      ...    2.0947e-06  Tolerance :   1.0000e-05

             **** THE GBW FILE WAS UPDATED (.inp.gbw) ****
             **** DENSITY FILE WAS UPDATED (.inp.scfp) ****
             **** ENERGY FILE WAS UPDATED (.inp.en.tmp) ****
             **** THE GBW FILE WAS UPDATED (.inp.gbw) ****
             **** DENSITY FILE WAS UPDATED (.inp.scfp) ****
----------------
ORBITAL ENERGIES
----------------

  NO   OCC          E(Eh)            E(eV) 
   0   2.0000     -19.240135      -523.5507 
   1   2.0000     -10.395209      -282.8680 
   2   2.0000      -0.980181       -26.6721 
   3   2.0000      -0.581516       -15.8239 
   4   2.0000      -0.379050       -10.3145 
   5   2.0000      -0.364884        -9.9290 
   6   2.0000      -0.364884        -9.9290 
   7   0.0000      -0.133759        -3.6398 
   8   0.0000      -0.133759        -3.6398 
   9   0.0000       0.077477         2.1083 
  10   0.0000       0.429897        11.6981 
  11   0.0000       0.453383        12.3372 
  12   0.0000       0.453383        12.3372 
  13   0.0000       0.537785        14.6339 
  14   0.0000       0.914188        24.8763 
  15   0.0000       0.914188        24.8763 
  16   0.0000       0.918651        24.9978 
  17   0.0000       1.105609        30.0852 
  18   0.0000       1.105812        30.0907 
  19   0.0000       1.185055        32.2470 
  20   0.0000       1.185055        32.2470 
  21   0.0000       1.458709        39.6935 
  22   0.0000       1.689677        45.9785 
  23   0.0000       2.565004        69.7973 
  24   0.0000       2.566373        69.8345 
  25   0.0000       2.723298        74.1047 
  26   0.0000       2.723298        74.1047 
  27   0.0000       3.025858        82.3378 

                    ********************************
                    * MULLIKEN POPULATION ANALYSIS *
                    ********************************

-----------------------
MULLIKEN ATOMIC CHARGES
-----------------------
   0 C :    0.227559
   1 O :   -0.227559
Sum of atomic charges:    0.0000000

--------------------------------
MULLIKEN REDUCED ORBITAL CHARGES
--------------------------------
  0 C s       :     3.889588  s :     3.889588
      pz      :     0.499362  p :     1.835623
      px      :     0.836899
      py      :     0.499362
      dz2     :     0.005601  d :     0.047230
      dxz     :     0.012414
      dyz     :     0.000000
      dx2y2   :     0.016802
      dxy     :     0.012414
  1 O s       :     3.920466  s :     3.920466
      pz      :     1.486521  p :     4.299692
      px      :     1.326649
      py      :     1.486521
      dz2     :     0.000999  d :     0.007401
      dxz     :     0.001703
      dyz     :     0.000000
      dx2y2   :     0.002997
      dxy     :     0.001703


                     *******************************
                     * LOEWDIN POPULATION ANALYSIS *
                     *******************************

----------------------
LOEWDIN ATOMIC CHARGES
----------------------
   0 C :    0.108908
   1 O :   -0.108908

-------------------------------
LOEWDIN REDUCED ORBITAL CHARGES
-------------------------------
  0 C s       :     3.801499  s :     3.801499
      pz      :     0.509971  p :     1.995789
      px      :     0.975847
      py      :     0.509971
      dz2     :     0.013686  d :     0.093804
      dxz     :     0.019530
      dyz     :     0.000000
      dx2y2   :     0.041058
      dxy     :     0.019530
  1 O s       :     3.762438  s :     3.762438
      pz      :     1.468833  p :     4.336034
      px      :     1.398368
      py      :     1.468833
      dz2     :     0.001776  d :     0.010436
      dxz     :     0.001666
      dyz     :     0.000000
      dx2y2   :     0.005328
      dxy     :     0.001666


                      *****************************
                      * MAYER POPULATION ANALYSIS *
                      *****************************

  NA   - Mulliken gross atomic population
  ZA   - Total nuclear charge
  QA   - Mulliken gross atomic charge
  VA   - Mayer's total valence
  BVA  - Mayer's bonded valence
  FA   - Mayer's free valence

  ATOM       NA         ZA         QA         VA         BVA        FA
  0 C      5.7724     6.0000     0.2276     2.4303     2.4303     0.0000
  1 O      8.2276     8.0000    -0.2276     2.4303     2.4303     0.0000

  Mayer bond orders larger than 0.100000
B(  0-C ,  1-O ) :   2.4303 

-------
TIMINGS
-------

Total SCF time: 0 days 0 hours 0 min 1 sec 

Total time                  ....       1.873 sec
Sum of individual times     ....       1.713 sec  ( 91.4%)

Fock matrix formation       ....       1.556 sec  ( 83.0%)
  XC integration            ....       0.048 sec  (  3.1% of F)
    Basis function eval.    ....       0.016 sec  ( 33.3% of XC)
    Density eval.           ....       0.006 sec  ( 12.9% of XC)
    XC-Functional eval.     ....       0.009 sec  ( 18.7% of XC)
    XC-Potential eval.      ....       0.006 sec  ( 11.7% of XC)
Diagonalization             ....       0.002 sec  (  0.1%)
Density matrix formation    ....       0.000 sec  (  0.0%)
Population analysis         ....       0.001 sec  (  0.0%)
Initial guess               ....       0.075 sec  (  4.0%)
Orbital Transformation      ....       0.000 sec  (  0.0%)
Orbital Orthonormalization  ....       0.000 sec  (  0.0%)
DIIS solution               ....       0.001 sec  (  0.1%)
SOSCF solution              ....       0.000 sec  (  0.0%)
Grid generation             ....       0.078 sec  (  4.2%)

-------------------------   --------------------
FINAL SINGLE POINT ENERGY      -113.109150172106
-------------------------   --------------------



           ************************************************************
           *        Program running with 4 parallel MPI-processes     *
           *              working on a common directory               *
           ************************************************************
------------------------------------------------------------------------------
                         ORCA SCF GRADIENT CALCULATION
------------------------------------------------------------------------------

Gradient of the Kohn-Sham DFT energy:
Kohn-Sham wavefunction type      ... RKS
Hartree-Fock exchange scaling    ...    0.200
Number of operators              ...    1
Number of atoms                  ...    2
Basis set dimensions             ...   28
Integral neglect threshold       ... 2.5e-11
Integral primitive cutoff        ... 2.5e-12

Nuclear repulsion gradient       ... done
One Electron Gradient            ... done
Pre-screening matrix             ... done
Starting the two electron gradient:
Two electron gradient done
Exchange-correlation gradient    ... done

------------------
CARTESIAN GRADIENT
------------------

   1   C   :   -0.264035117   -0.000000000    0.000000000
   2   O   :    0.264035117    0.000000000   -0.000000000

Difference to translation invariance:
           :    0.0000000000   -0.0000000000    0.0000000000

Norm of the cartesian gradient     ...    0.3734020436
RMS gradient                       ...    0.1524407459
MAX gradient                       ...    0.2640351171

-------
TIMINGS
-------

Total SCF gradient time            ...        0.132 sec

One electron gradient       ....       0.001 sec  (  0.4%)
Prescreening matrices       ....       0.004 sec  (  3.3%)
Two electron gradient       ....       0.023 sec  ( 17.8%)
XC gradient                 ....       0.016 sec  ( 11.9%)
------------------------------------------------------------------------------
                         ORCA GEOMETRY RELAXATION STEP
------------------------------------------------------------------------------

Reading the OPT-File                    .... done
Getting information on internals        .... done
Copying old internal coords+grads       .... done
Making the new internal coordinates     .... (new redundants).... done
Validating the new internal coordinates .... (new redundants).... done
Calculating the B-matrix                .... done
Calculating the G,G- and P matrices     .... done
Transforming gradient to internals      .... done
Projecting the internal gradient        .... done
Number of atoms                         ....   2
Number of internal coordinates          ....   1
Current Energy                          ....  -113.109150172 Eh
Current gradient norm                   ....     0.373402044 Eh/bohr
Maximum allowed component of the step   ....  0.300
Current trust radius                    ....  0.300
Evaluating the initial hessian          ....  (Almloef) done
Projecting the Hessian                  .... done
Forming the augmented Hessian           .... done
Diagonalizing the augmented Hessian     .... done
Last element of RFO vector              ....  0.872132406
Lowest eigenvalues of augmented Hessian:
 -0.148124806
Length of the computed step             ....  0.561004187
Warning: the length of the step is outside the trust region - taking restricted step instead
The input lambda is                     ....    -0.148125
   iter:   1  x=   -0.316155  g=    1.337416 f(x)=     0.224726
   iter:   2  x=   -0.467329  g=    0.535192 f(x)=     0.080907
   iter:   3  x=   -0.544183  g=    0.282955 f(x)=     0.021746
   iter:   4  x=   -0.557290  g=    0.214160 f(x)=     0.002807
   iter:   5  x=   -0.557594  g=    0.204731 f(x)=     0.000062
   iter:   6  x=   -0.557595  g=    0.204518 f(x)=     0.000000
   iter:   7  x=   -0.557595  g=    0.204518 f(x)=     0.000000
   iter:   8  x=   -0.557595  g=    0.204518 f(x)=     0.000000
The output lambda is                    ....    -0.557595 (8 iterations)
The final length of the internal step   ....  0.300000000
Converting the step to cartesian space:
 Initial RMS(Int)=    0.3000000000
Transforming coordinates:
 Iter   0:  RMS(Cart)=    0.0866025404 RMS(Int)=    0.3000000000
 Iter   1:  RMS(Cart)=    0.0000000000 RMS(Int)=    0.0000000000
done
Storing new coordinates                 .... done

                                .--------------------.
          ----------------------|Geometry convergence|-------------------------
          Item                value                   Tolerance       Converged
          ---------------------------------------------------------------------
          RMS gradient        0.2640351171            0.0001000000      NO
          MAX gradient        0.2640351171            0.0003000000      NO
          RMS step            0.3000000000            0.0020000000      NO
          MAX step            0.3000000000            0.0040000000      NO
          ........................................................
          Max(Bonds)      0.1588      Max(Angles)    0.00
          Max(Dihed)        0.00      Max(Improp)    0.00
          ---------------------------------------------------------------------

The optimization has not yet converged - more geometry cycles are needed


    ---------------------------------------------------------------------------
                         Redundant Internal Coordinates
                            (Angstroem and degrees)

        Definition                    Value    dE/dq     Step     New-Value
    ----------------------------------------------------------------------------
     1. B(O   1,C   0)                1.5400  0.264035 -0.1588    1.3812   
    ----------------------------------------------------------------------------

         *************************************************************
         *                GEOMETRY OPTIMIZATION CYCLE   2            *
         *************************************************************
---------------------------------
CARTESIAN COORDINATES (ANGSTROEM)
---------------------------------
  C    -28.003953   12.166670    0.000000
  O    -26.622707   12.166670    0.000000

----------------------------
CARTESIAN COORDINATES (A.U.)
----------------------------
  NO LB      ZA    FRAG     MASS         X           Y           Z
   0 C     6.0000    0    12.011  -52.919803   22.991674    0.000000
   1 O     8.0000    0    15.999  -50.309624   22.991674    0.000000

--------------------------------
INTERNAL COORDINATES (ANGSTROEM)
--------------------------------
 C      0   0   0     0.000000000000     0.00000000     0.00000000
 O      1   0   0     1.381246837510     0.00000000     0.00000000

---------------------------
INTERNAL COORDINATES (A.U.)
---------------------------
 C      0   0   0     0.000000000000     0.00000000     0.00000000
 O      1   0   0     2.610178246239     0.00000000     0.00000000



           ************************************************************
           *        Program running with 4 parallel MPI-processes     *
           *              working on a common directory               *
           ************************************************************


           ************************************************************
           *        Program running with 4 parallel MPI-processes     *
           *              working on a common directory               *
           ************************************************************

Diagonalization of the overlap matrix:
Smallest eigenvalue                        ... 2.991e-02
Time for diagonalization                   ...    0.001 sec
Threshold for overlap eigenvalues          ... 1.000e-08
Number of eigenvalues below threshold      ... 0
Time for construction of square roots      ...    0.000 sec
Total time needed                          ...    0.001 sec

-------------------
DFT GRID GENERATION
-------------------

General Integration Accuracy     IntAcc      ...  4.340
Radial Grid Type                 RadialGrid  ... Gauss-Chebyshev
Angular Grid (max. acc.)         AngularGrid ... Lebedev-110
Angular grid pruning method      GridPruning ... 3 (G Style)
Weight generation scheme         WeightScheme... Becke
Basis function cutoff            BFCut       ...    1.0000e-11
Integration weight cutoff        WCut        ...    1.0000e-14
Grids for H and He will be reduced by one unit

# of grid points (after initial pruning)     ...   3372 (   0.0 sec)
# of grid points (after weights+screening)   ...   3347 (   0.0 sec)
nearest neighbour list constructed           ...    0.0 sec
Grid point re-assignment to atoms done       ...    0.0 sec
Grid point division into batches done        ...    0.0 sec
Reduced shell lists constructed in    0.0 sec

Total number of grid points                  ...     3347
Total number of batches                      ...       53
Average number of points per batch           ...       63
Average number of grid points per atom       ...     1674
Average number of shells per batch           ...     9.87 (82.22%)
Average number of basis functions per batch  ...    23.07 (82.38%)
Average number of large shells per batch     ...     7.80 (79.05%)
Average number of large basis fcns per batch ...    18.33 (79.48%)
Maximum spatial batch extension              ...  16.80, 23.60, 31.36 au
Average spatial batch extension              ...   2.82,  3.01,  3.57 au

Time for grid setup =    0.008 sec

--------------
SCF ITERATIONS
--------------
ITER       Energy         Delta-E        Max-DP      RMS-DP      [F,P]     Damp
               ***  Starting incremental Fock matrix formation  ***
  0   -113.1801628965   0.000000000000 0.01374671  0.00154260  0.0580376 0.7000
  1   -113.1828271723  -0.002664275827 0.01207498  0.00129711  0.0346135 0.7000
                               ***Turning on DIIS***
  2   -113.1846375182  -0.001810345953 0.03276475  0.00328270  0.0250136 0.0000
  3   -113.1889779254  -0.004340407195 0.01227899  0.00080482  0.0046439 0.0000
  4   -113.1890368789  -0.000058953463 0.00267007  0.00023418  0.0051310 0.0000
                      *** Initiating the SOSCF procedure ***
                           *** Shutting down DIIS ***
                      *** Re-Reading the Fockian *** 
                      *** Removing any level shift *** 
ITER      Energy       Delta-E        Grad      Rot      Max-DP    RMS-DP
  5   -113.18906099  -0.0000241150  0.000470  0.000470  0.000989  0.000094
               *** Restarting incremental Fock matrix formation ***
  6   -113.18906586  -0.0000048650  0.000181  0.000555  0.000761  0.000065
  7   -113.18906408   0.0000017829  0.000708  0.000508  0.000589  0.000050
  8   -113.18906608  -0.0000020019  0.000024  0.000027  0.000126  0.000009
  9   -113.18906608  -0.0000000044  0.000017  0.000010  0.000041  0.000003
                 **** Energy Check signals convergence ****
              ***Rediagonalizing the Fockian in SOSCF/NRSCF***

               *****************************************************
               *                     SUCCESS                       *
               *           SCF CONVERGED AFTER  10 CYCLES          *
               *****************************************************

Setting up the final grid:

General Integration Accuracy     IntAcc      ...  4.670
Radial Grid Type                 RadialGrid  ... Gauss-Chebyshev
Angular Grid (max. acc.)         AngularGrid ... Lebedev-302
Angular grid pruning method      GridPruning ... 3 (G Style)
Weight generation scheme         WeightScheme... Becke
Basis function cutoff            BFCut       ...    1.0000e-11
Integration weight cutoff        WCut        ...    1.0000e-14
Grids for H and He will be reduced by one unit

# of grid points (after initial pruning)     ...  12424 (   0.0 sec)
# of grid points (after weights+screening)   ...  12396 (   0.0 sec)
nearest neighbour list constructed           ...    0.0 sec
Grid point re-assignment to atoms done       ...    0.0 sec
Grid point division into batches done        ...    0.0 sec
Reduced shell lists constructed in    0.0 sec

Total number of grid points                  ...    12396
Total number of batches                      ...      194
Average number of points per batch           ...       63
Average number of grid points per atom       ...     6198
Average number of shells per batch           ...     7.50 (62.50%)
Average number of basis functions per batch  ...    17.30 (61.79%)
Average number of large shells per batch     ...     6.48 (86.40%)
Average number of large basis fcns per batch ...    15.48 (89.48%)
Maximum spatial batch extension              ...  15.77, 24.37, 22.15 au
Average spatial batch extension              ...   1.71,  1.93,  1.81 au

Final grid set up in    0.1 sec
Final integration                            ... done (   0.0 sec)
Change in XC energy                          ...     0.000033339
Integrated number of electrons               ...    14.000002103
Previous integrated no of electrons          ...    14.000126450
Total Energy       :         -113.18903275 Eh           -3080.03017 eV
  Last Energy change         ...   -2.6307e-09  Tolerance :   1.0000e-08
  Last MAX-Density change    ...    1.2005e-06  Tolerance :   1.0000e-07
             **** THE GBW FILE WAS UPDATED (.inp.gbw) ****
             **** DENSITY FILE WAS UPDATED (.inp.scfp) ****
             **** ENERGY FILE WAS UPDATED (.inp.en.tmp) ****
             **** THE GBW FILE WAS UPDATED (.inp.gbw) ****
             **** DENSITY FILE WAS UPDATED (.inp.scfp) ****
Total SCF time: 0 days 0 hours 0 min 1 sec 

-------------------------   --------------------
FINAL SINGLE POINT ENERGY      -113.189032745470
-------------------------   --------------------



           ************************************************************
           *        Program running with 4 parallel MPI-processes     *
           *              working on a common directory               *
           ************************************************************
------------------------------------------------------------------------------
                         ORCA SCF GRADIENT CALCULATION
------------------------------------------------------------------------------

Gradient of the Kohn-Sham DFT energy:
Kohn-Sham wavefunction type      ... RKS
Hartree-Fock exchange scaling    ...    0.200
Number of operators              ...    1
Number of atoms                  ...    2
Basis set dimensions             ...   28
Integral neglect threshold       ... 2.5e-11
Integral primitive cutoff        ... 2.5e-12

Nuclear repulsion gradient       ... done
One Electron Gradient            ... done
Pre-screening matrix             ... done
Starting the two electron gradient:
Two electron gradient done
Exchange-correlation gradient    ... done

------------------
CARTESIAN GRADIENT
------------------

   1   C   :   -0.259099793   -0.000000000   -0.000000000
   2   O   :    0.259099793    0.000000000    0.000000000

Difference to translation invariance:
           :    0.0000000000   -0.0000000000   -0.0000000000

Norm of the cartesian gradient     ...    0.3664224411
RMS gradient                       ...    0.1495913351
MAX gradient                       ...    0.2590997929

-------
TIMINGS
-------

Total SCF gradient time            ...        0.178 sec

One electron gradient       ....       0.001 sec  (  0.5%)
Prescreening matrices       ....       0.008 sec  (  4.5%)
Two electron gradient       ....       0.040 sec  ( 22.5%)
XC gradient                 ....       0.023 sec  ( 12.7%)
------------------------------------------------------------------------------
                         ORCA GEOMETRY RELAXATION STEP
------------------------------------------------------------------------------

Reading the OPT-File                    .... done
Getting information on internals        .... done
Copying old internal coords+grads       .... done
Making the new internal coordinates     .... (new redundants).... done
Validating the new internal coordinates .... (new redundants).... done
Calculating the B-matrix                .... done
Calculating the G,G- and P matrices     .... done
Transforming gradient to internals      .... done
Projecting the internal gradient        .... done
Number of atoms                         ....   2
Number of internal coordinates          ....   1
Current Energy                          ....  -113.189032745 Eh
Current gradient norm                   ....     0.366422441 Eh/bohr
Maximum allowed component of the step   ....  0.300
Current trust radius                    ....  0.300
Updating the Hessian (BFGS)             .... done
Forming the augmented Hessian           .... done
Diagonalizing the augmented Hessian     .... done
Last element of RFO vector              ....  0.718237644
Lowest eigenvalues of augmented Hessian:
 -0.251004786
Length of the computed step             ....  0.968757185
Warning: the length of the step is outside the trust region - taking restricted step instead
The input lambda is                     ....    -0.251005
   iter:   1  x=   -0.371908  g=    7.017909 f(x)=     0.848490
   iter:   2  x=   -0.526825  g=    2.292252 f(x)=     0.355109
   iter:   3  x=   -0.690980  g=    0.837339 f(x)=     0.137453
   iter:   4  x=   -0.807378  g=    0.379237 f(x)=     0.044142
   iter:   5  x=   -0.844501  g=    0.240134 f(x)=     0.008915
   iter:   6  x=   -0.847202  g=    0.210391 f(x)=     0.000568
   iter:   7  x=   -0.847215  g=    0.208423 f(x)=     0.000003
   iter:   8  x=   -0.847215  g=    0.208414 f(x)=     0.000000
   iter:   9  x=   -0.847215  g=    0.208414 f(x)=     0.000000
The output lambda is                    ....    -0.847215 (9 iterations)
The final length of the internal step   ....  0.300000000
Converting the step to cartesian space:
 Initial RMS(Int)=    0.3000000000
Transforming coordinates:
 Iter   0:  RMS(Cart)=    0.0866025404 RMS(Int)=    0.3000000000
 Iter   1:  RMS(Cart)=    0.0000000000 RMS(Int)=    0.0000000000
done
Storing new coordinates                 .... done

                                .--------------------.
          ----------------------|Geometry convergence|-------------------------
          Item                value                   Tolerance       Converged
          ---------------------------------------------------------------------
          Energy change      -0.0798825734            0.0000050000      NO
          RMS gradient        0.2590997928            0.0001000000      NO
          MAX gradient        0.2590997928            0.0003000000      NO
          RMS step            0.3000000000            0.0020000000      NO
          MAX step            0.3000000000            0.0040000000      NO
          ........................................................
          Max(Bonds)      0.1588      Max(Angles)    0.00
          Max(Dihed)        0.00      Max(Improp)    0.00
          ---------------------------------------------------------------------

The optimization has not yet converged - more geometry cycles are needed


    ---------------------------------------------------------------------------
                         Redundant Internal Coordinates
                            (Angstroem and degrees)

        Definition                    Value    dE/dq     Step     New-Value
    ----------------------------------------------------------------------------
     1. B(O   1,C   0)                1.3812  0.259100 -0.1588    1.2225   
    ----------------------------------------------------------------------------

         *************************************************************
         *                GEOMETRY OPTIMIZATION CYCLE   3            *
         *************************************************************
---------------------------------
CARTESIAN COORDINATES (ANGSTROEM)
---------------------------------
  C    -27.924577   12.166670    0.000000
  O    -26.702083   12.166670    0.000000

----------------------------
CARTESIAN COORDINATES (A.U.)
----------------------------
  NO LB      ZA    FRAG     MASS         X           Y           Z
   0 C     6.0000    0    12.011  -52.769803   22.991674    0.000000
   1 O     8.0000    0    15.999  -50.459624   22.991674    0.000000

--------------------------------
INTERNAL COORDINATES (ANGSTROEM)
--------------------------------
 C      0   0   0     0.000000000000     0.00000000     0.00000000
 O      1   0   0     1.222493675020     0.00000000     0.00000000

---------------------------
INTERNAL COORDINATES (A.U.)
---------------------------
 C      0   0   0     0.000000000000     0.00000000     0.00000000
 O      1   0   0     2.310178246239     0.00000000     0.00000000



           ************************************************************
           *        Program running with 4 parallel MPI-processes     *
           *              working on a common directory               *
           ************************************************************


           ************************************************************
           *        Program running with 4 parallel MPI-processes     *
           *              working on a common directory               *
           ************************************************************

Diagonalization of the overlap matrix:
Smallest eigenvalue                        ... 2.441e-02
Time for diagonalization                   ...    0.000 sec
Threshold for overlap eigenvalues          ... 1.000e-08
Number of eigenvalues below threshold      ... 0
Time for construction of square roots      ...    0.000 sec
Total time needed                          ...    0.001 sec

-------------------
DFT GRID GENERATION
-------------------

General Integration Accuracy     IntAcc      ...  4.340
Radial Grid Type                 RadialGrid  ... Gauss-Chebyshev
Angular Grid (max. acc.)         AngularGrid ... Lebedev-110
Angular grid pruning method      GridPruning ... 3 (G Style)
Weight generation scheme         WeightScheme... Becke
Basis function cutoff            BFCut       ...    1.0000e-11
Integration weight cutoff        WCut        ...    1.0000e-14
Grids for H and He will be reduced by one unit

# of grid points (after initial pruning)     ...   3372 (   0.0 sec)
# of grid points (after weights+screening)   ...   3346 (   0.0 sec)
nearest neighbour list constructed           ...    0.0 sec
Grid point re-assignment to atoms done       ...    0.0 sec
Grid point division into batches done        ...    0.0 sec
Reduced shell lists constructed in    0.0 sec

Total number of grid points                  ...     3346
Total number of batches                      ...       53
Average number of points per batch           ...       63
Average number of grid points per atom       ...     1673
Average number of shells per batch           ...     9.87 (82.22%)
Average number of basis functions per batch  ...    23.07 (82.38%)
Average number of large shells per batch     ...     7.93 (80.41%)
Average number of large basis fcns per batch ...    18.73 (81.21%)
Maximum spatial batch extension              ...  16.50, 23.60, 31.36 au
Average spatial batch extension              ...   2.82,  3.16,  3.52 au

Time for grid setup =    0.007 sec

--------------
SCF ITERATIONS
--------------
ITER       Energy         Delta-E        Max-DP      RMS-DP      [F,P]     Damp
               ***  Starting incremental Fock matrix formation  ***
  0   -113.2424408521   0.000000000000 0.01829253  0.00190973  0.0689191 0.7000
  1   -113.2463320860  -0.003891233942 0.01435869  0.00158951  0.0425484 0.7000
                               ***Turning on DIIS***
  2   -113.2489156572  -0.002583571163 0.03420265  0.00392223  0.0267944 0.0000
  3   -113.2547816936  -0.005866036423 0.01475600  0.00094896  0.0063750 0.0000
                      *** Initiating the SOSCF procedure ***
                           *** Shutting down DIIS ***
                      *** Re-Reading the Fockian *** 
                      *** Removing any level shift *** 
ITER      Energy       Delta-E        Grad      Rot      Max-DP    RMS-DP
  4   -113.25492670  -0.0001450050  0.000649  0.000649  0.001993  0.000152
               *** Restarting incremental Fock matrix formation ***
  5   -113.25493128  -0.0000045818  0.000610  0.001576  0.001893  0.000176
  6   -113.25492135   0.0000099273  0.001710  0.001168  0.001468  0.000125
  7   -113.25493301  -0.0000116559  0.000039  0.000045  0.000170  0.000011
  8   -113.25493302  -0.0000000071  0.000022  0.000015  0.000055  0.000004
                 **** Energy Check signals convergence ****
              ***Rediagonalizing the Fockian in SOSCF/NRSCF***

               *****************************************************
               *                     SUCCESS                       *
               *           SCF CONVERGED AFTER   9 CYCLES          *
               *****************************************************

Setting up the final grid:

General Integration Accuracy     IntAcc      ...  4.670
Radial Grid Type                 RadialGrid  ... Gauss-Chebyshev
Angular Grid (max. acc.)         AngularGrid ... Lebedev-302
Angular grid pruning method      GridPruning ... 3 (G Style)
Weight generation scheme         WeightScheme... Becke
Basis function cutoff            BFCut       ...    1.0000e-11
Integration weight cutoff        WCut        ...    1.0000e-14
Grids for H and He will be reduced by one unit

# of grid points (after initial pruning)     ...  12424 (   0.0 sec)
# of grid points (after weights+screening)   ...  12394 (   0.0 sec)
nearest neighbour list constructed           ...    0.0 sec
Grid point re-assignment to atoms done       ...    0.0 sec
Grid point division into batches done        ...    0.0 sec
Reduced shell lists constructed in    0.0 sec

Total number of grid points                  ...    12394
Total number of batches                      ...      194
Average number of points per batch           ...       63
Average number of grid points per atom       ...     6197
Average number of shells per batch           ...     7.60 (63.33%)
Average number of basis functions per batch  ...    17.56 (62.71%)
Average number of large shells per batch     ...     6.52 (85.79%)
Average number of large basis fcns per batch ...    15.64 (89.07%)
Maximum spatial batch extension              ...  15.75, 22.15, 22.15 au
Average spatial batch extension              ...   1.70,  1.91,  1.81 au

Final grid set up in    0.0 sec
Final integration                            ... done (   0.0 sec)
Change in XC energy                          ...    -0.000031501
Integrated number of electrons               ...    14.000006425
Previous integrated no of electrons          ...    13.999930670
Total Energy       :         -113.25496452 Eh           -3081.82426 eV
  Last Energy change         ...   -3.6955e-09  Tolerance :   1.0000e-08
  Last MAX-Density change    ...    4.6278e-07  Tolerance :   1.0000e-07
             **** THE GBW FILE WAS UPDATED (.inp.gbw) ****
             **** DENSITY FILE WAS UPDATED (.inp.scfp) ****
             **** ENERGY FILE WAS UPDATED (.inp.en.tmp) ****
             **** THE GBW FILE WAS UPDATED (.inp.gbw) ****
             **** DENSITY FILE WAS UPDATED (.inp.scfp) ****
Total SCF time: 0 days 0 hours 0 min 1 sec 

-------------------------   --------------------
FINAL SINGLE POINT ENERGY      -113.254964521145
-------------------------   --------------------



           ************************************************************
           *        Program running with 4 parallel MPI-processes     *
           *              working on a common directory               *
           ************************************************************
------------------------------------------------------------------------------
                         ORCA SCF GRADIENT CALCULATION
------------------------------------------------------------------------------

Gradient of the Kohn-Sham DFT energy:
Kohn-Sham wavefunction type      ... RKS
Hartree-Fock exchange scaling    ...    0.200
Number of operators              ...    1
Number of atoms                  ...    2
Basis set dimensions             ...   28
Integral neglect threshold       ... 2.5e-11
Integral primitive cutoff        ... 2.5e-12

Nuclear repulsion gradient       ... done
One Electron Gradient            ... done
Pre-screening matrix             ... done
Starting the two electron gradient:
Two electron gradient done
Exchange-correlation gradient    ... done

------------------
CARTESIAN GRADIENT
------------------

   1   C   :   -0.154226030   -0.000000000   -0.000000000
   2   O   :    0.154226030    0.000000000    0.000000000

Difference to translation invariance:
           :    0.0000000000   -0.0000000000   -0.0000000000

Norm of the cartesian gradient     ...    0.2181085434
RMS gradient                       ...    0.0890424400
MAX gradient                       ...    0.1542260301

-------
TIMINGS
-------

Total SCF gradient time            ...        0.129 sec

One electron gradient       ....       0.000 sec  (  0.3%)
Prescreening matrices       ....       0.004 sec  (  3.4%)
Two electron gradient       ....       0.024 sec  ( 18.2%)
XC gradient                 ....       0.015 sec  ( 11.4%)
------------------------------------------------------------------------------
                         ORCA GEOMETRY RELAXATION STEP
------------------------------------------------------------------------------

Reading the OPT-File                    .... done
Getting information on internals        .... done
Copying old internal coords+grads       .... done
Making the new internal coordinates     .... (new redundants).... done
Validating the new internal coordinates .... (new redundants).... done
Calculating the B-matrix                .... done
Calculating the G,G- and P matrices     .... done
Transforming gradient to internals      .... done
Projecting the internal gradient        .... done
Number of atoms                         ....   2
Number of internal coordinates          ....   1
Current Energy                          ....  -113.254964521 Eh
Current gradient norm                   ....     0.218108543 Eh/bohr
Maximum allowed component of the step   ....  0.300
Current trust radius                    ....  0.300
Updating the Hessian (BFGS)             .... done
Forming the augmented Hessian           .... done
Diagonalizing the augmented Hessian     .... done
Last element of RFO vector              ....  0.935371063
Lowest eigenvalues of augmented Hessian:
 -0.058313536
Length of the computed step             ....  0.378104371
Warning: the length of the step is outside the trust region - taking restricted step instead
The input lambda is                     ....    -0.058314
   iter:   1  x=   -0.133869  g=    0.700983 f(x)=     0.052963
   iter:   2  x=   -0.161823  g=    0.421014 f(x)=     0.011769
   iter:   3  x=   -0.164487  g=    0.355679 f(x)=     0.000947
   iter:   4  x=   -0.164508  g=    0.350178 f(x)=     0.000007
   iter:   5  x=   -0.164508  g=    0.350135 f(x)=     0.000000
   iter:   6  x=   -0.164508  g=    0.350135 f(x)=     0.000000
The output lambda is                    ....    -0.164508 (6 iterations)
The final length of the internal step   ....  0.300000000
Converting the step to cartesian space:
 Initial RMS(Int)=    0.3000000000
Transforming coordinates:
 Iter   0:  RMS(Cart)=    0.0866025404 RMS(Int)=    0.3000000000
 Iter   1:  RMS(Cart)=    0.0000000000 RMS(Int)=    0.0000000000
done
Storing new coordinates                 .... done

                                .--------------------.
          ----------------------|Geometry convergence|-------------------------
          Item                value                   Tolerance       Converged
          ---------------------------------------------------------------------
          Energy change      -0.0659317757            0.0000050000      NO
          RMS gradient        0.1542260301            0.0001000000      NO
          MAX gradient        0.1542260301            0.0003000000      NO
          RMS step            0.3000000000            0.0020000000      NO
          MAX step            0.3000000000            0.0040000000      NO
          ........................................................
          Max(Bonds)      0.1588      Max(Angles)    0.00
          Max(Dihed)        0.00      Max(Improp)    0.00
          ---------------------------------------------------------------------

The optimization has not yet converged - more geometry cycles are needed


    ---------------------------------------------------------------------------
                         Redundant Internal Coordinates
                            (Angstroem and degrees)

        Definition                    Value    dE/dq     Step     New-Value
    ----------------------------------------------------------------------------
     1. B(O   1,C   0)                1.2225  0.154226 -0.1588    1.0637   
    ----------------------------------------------------------------------------

         *************************************************************
         *                GEOMETRY OPTIMIZATION CYCLE   4            *
         *************************************************************
---------------------------------
CARTESIAN COORDINATES (ANGSTROEM)
---------------------------------
  C    -27.845200   12.166670    0.000000
  O    -26.781460   12.166670    0.000000

----------------------------
CARTESIAN COORDINATES (A.U.)
----------------------------
  NO LB      ZA    FRAG     MASS         X           Y           Z
   0 C     6.0000    0    12.011  -52.619803   22.991674    0.000000
   1 O     8.0000    0    15.999  -50.609624   22.991674    0.000000

--------------------------------
INTERNAL COORDINATES (ANGSTROEM)
--------------------------------
 C      0   0   0     0.000000000000     0.00000000     0.00000000
 O      1   0   0     1.063740512530     0.00000000     0.00000000

---------------------------
INTERNAL COORDINATES (A.U.)
---------------------------
 C      0   0   0     0.000000000000     0.00000000     0.00000000
 O      1   0   0     2.010178246239     0.00000000     0.00000000



           ************************************************************
           *        Program running with 4 parallel MPI-processes     *
           *              working on a common directory               *
           ************************************************************


           ************************************************************
           *        Program running with 4 parallel MPI-processes     *
           *              working on a common directory               *
           ************************************************************

Diagonalization of the overlap matrix:
Smallest eigenvalue                        ... 2.000e-02
Time for diagonalization                   ...    0.000 sec
Threshold for overlap eigenvalues          ... 1.000e-08
Number of eigenvalues below threshold      ... 0
Time for construction of square roots      ...    0.000 sec
Total time needed                          ...    0.001 sec

-------------------
DFT GRID GENERATION
-------------------

General Integration Accuracy     IntAcc      ...  4.340
Radial Grid Type                 RadialGrid  ... Gauss-Chebyshev
Angular Grid (max. acc.)         AngularGrid ... Lebedev-110
Angular grid pruning method      GridPruning ... 3 (G Style)
Weight generation scheme         WeightScheme... Becke
Basis function cutoff            BFCut       ...    1.0000e-11
Integration weight cutoff        WCut        ...    1.0000e-14
Grids for H and He will be reduced by one unit

# of grid points (after initial pruning)     ...   3372 (   0.0 sec)
# of grid points (after weights+screening)   ...   3345 (   0.0 sec)
nearest neighbour list constructed           ...    0.0 sec
Grid point re-assignment to atoms done       ...    0.0 sec
Grid point division into batches done        ...    0.0 sec
Reduced shell lists constructed in    0.0 sec

Total number of grid points                  ...     3345
Total number of batches                      ...       54
Average number of points per batch           ...       61
Average number of grid points per atom       ...     1672
Average number of shells per batch           ...     9.93 (82.78%)
Average number of basis functions per batch  ...    23.13 (82.62%)
Average number of large shells per batch     ...     8.13 (81.88%)
Average number of large basis fcns per batch ...    19.33 (83.57%)
Maximum spatial batch extension              ...  16.20, 23.60, 31.36 au
Average spatial batch extension              ...   2.72,  3.07,  3.45 au

Time for grid setup =    0.005 sec

--------------
SCF ITERATIONS
--------------
ITER       Energy         Delta-E        Max-DP      RMS-DP      [F,P]     Damp
               ***  Starting incremental Fock matrix formation  ***
  0   -113.2381822528   0.000000000000 0.02144390  0.00231857  0.0906756 0.7000
  1   -113.2439962900  -0.005814037155 0.01646221  0.00183486  0.0626926 0.7000
                               ***Turning on DIIS***
  2   -113.2476380533  -0.003641763347 0.03923356  0.00431275  0.0410481 0.0000
  3   -113.2553308462  -0.007692792928 0.02026230  0.00124788  0.0118162 0.0000
                      *** Initiating the SOSCF procedure ***
                           *** Shutting down DIIS ***
                      *** Re-Reading the Fockian *** 
                      *** Removing any level shift *** 
ITER      Energy       Delta-E        Grad      Rot      Max-DP    RMS-DP
  4   -113.25563192  -0.0003010690  0.001155  0.001155  0.002743  0.000249
               *** Restarting incremental Fock matrix formation ***
  5   -113.25563612  -0.0000042047  0.001251  0.002491  0.003556  0.000324
  6   -113.25561311   0.0000230100  0.002717  0.001760  0.002516  0.000213
  7   -113.25564359  -0.0000304837  0.000059  0.000067  0.000249  0.000015
  8   -113.25564361  -0.0000000137  0.000033  0.000023  0.000090  0.000005
                 **** Energy Check signals convergence ****
              ***Rediagonalizing the Fockian in SOSCF/NRSCF***

               *****************************************************
               *                     SUCCESS                       *
               *           SCF CONVERGED AFTER   9 CYCLES          *
               *****************************************************

Setting up the final grid:

General Integration Accuracy     IntAcc      ...  4.670
Radial Grid Type                 RadialGrid  ... Gauss-Chebyshev
Angular Grid (max. acc.)         AngularGrid ... Lebedev-302
Angular grid pruning method      GridPruning ... 3 (G Style)
Weight generation scheme         WeightScheme... Becke
Basis function cutoff            BFCut       ...    1.0000e-11
Integration weight cutoff        WCut        ...    1.0000e-14
Grids for H and He will be reduced by one unit

# of grid points (after initial pruning)     ...  12424 (   0.0 sec)
# of grid points (after weights+screening)   ...  12392 (   0.0 sec)
nearest neighbour list constructed           ...    0.0 sec
Grid point re-assignment to atoms done       ...    0.0 sec
Grid point division into batches done        ...    0.0 sec
Reduced shell lists constructed in    0.0 sec

Total number of grid points                  ...    12392
Total number of batches                      ...      194
Average number of points per batch           ...       63
Average number of grid points per atom       ...     6196
Average number of shells per batch           ...     7.76 (64.67%)
Average number of basis functions per batch  ...    17.92 (64.00%)
Average number of large shells per batch     ...     6.58 (84.79%)
Average number of large basis fcns per batch ...    15.90 (88.73%)
Maximum spatial batch extension              ...  15.75, 22.15, 22.15 au
Average spatial batch extension              ...   1.70,  1.87,  1.83 au

Final grid set up in    0.1 sec
Final integration                            ... done (   0.0 sec)
Change in XC energy                          ...    -0.000102113
Integrated number of electrons               ...    14.000008351
Previous integrated no of electrons          ...    13.999837291
Total Energy       :         -113.25574573 Eh           -3081.84552 eV
  Last Energy change         ...   -7.2805e-09  Tolerance :   1.0000e-08
  Last MAX-Density change    ...    2.2550e-06  Tolerance :   1.0000e-07
             **** THE GBW FILE WAS UPDATED (.inp.gbw) ****
             **** DENSITY FILE WAS UPDATED (.inp.scfp) ****
             **** ENERGY FILE WAS UPDATED (.inp.en.tmp) ****
             **** THE GBW FILE WAS UPDATED (.inp.gbw) ****
             **** DENSITY FILE WAS UPDATED (.inp.scfp) ****
Total SCF time: 0 days 0 hours 0 min 1 sec 

-------------------------   --------------------
FINAL SINGLE POINT ENERGY      -113.255745727183
-------------------------   --------------------



           ************************************************************
           *        Program running with 4 parallel MPI-processes     *
           *              working on a common directory               *
           ************************************************************
------------------------------------------------------------------------------
                         ORCA SCF GRADIENT CALCULATION
------------------------------------------------------------------------------

Gradient of the Kohn-Sham DFT energy:
Kohn-Sham wavefunction type      ... RKS
Hartree-Fock exchange scaling    ...    0.200
Number of operators              ...    1
Number of atoms                  ...    2
Basis set dimensions             ...   28
Integral neglect threshold       ... 2.5e-11
Integral primitive cutoff        ... 2.5e-12

Nuclear repulsion gradient       ... done
One Electron Gradient            ... done
Pre-screening matrix             ... done
Starting the two electron gradient:
Two electron gradient done
Exchange-correlation gradient    ... done

------------------
CARTESIAN GRADIENT
------------------

   1   C   :    0.216872339   -0.000000000   -0.000000000
   2   O   :   -0.216872339    0.000000000    0.000000000

Difference to translation invariance:
           :    0.0000000000   -0.0000000000    0.0000000000

Norm of the cartesian gradient     ...    0.3067038036
RMS gradient                       ...    0.1252113035
MAX gradient                       ...    0.2168723394

-------
TIMINGS
-------

Total SCF gradient time            ...        0.180 sec

One electron gradient       ....       0.001 sec  (  0.7%)
Prescreening matrices       ....       0.008 sec  (  4.4%)
Two electron gradient       ....       0.042 sec  ( 23.1%)
XC gradient                 ....       0.024 sec  ( 13.1%)
------------------------------------------------------------------------------
                         ORCA GEOMETRY RELAXATION STEP
------------------------------------------------------------------------------

Reading the OPT-File                    .... done
Getting information on internals        .... done
Copying old internal coords+grads       .... done
Making the new internal coordinates     .... (new redundants).... done
Validating the new internal coordinates .... (new redundants).... done
Calculating the B-matrix                .... done
Calculating the G,G- and P matrices     .... done
Transforming gradient to internals      .... done
Projecting the internal gradient        .... done
Number of atoms                         ....   2
Number of internal coordinates          ....   1
Current Energy                          ....  -113.255745727 Eh
Current gradient norm                   ....     0.306703804 Eh/bohr
Maximum allowed component of the step   ....  0.300
Current trust radius                    ....  0.300
Updating the Hessian (BFGS)             .... done
Forming the augmented Hessian           .... done
Diagonalizing the augmented Hessian     .... done
Last element of RFO vector              ....  0.985816596
Lowest eigenvalues of augmented Hessian:
 -0.036920523
Length of the computed step             ....  0.170240812
The final length of the internal step   ....  0.170240812
Converting the step to cartesian space:
 Initial RMS(Int)=    0.1702408123
Transforming coordinates:
 Iter   0:  RMS(Cart)=    0.0491442894 RMS(Int)=    0.1702408123
 Iter   1:  RMS(Cart)=    0.0000000000 RMS(Int)=    0.0000000000
done
Storing new coordinates                 .... done

                                .--------------------.
          ----------------------|Geometry convergence|-------------------------
          Item                value                   Tolerance       Converged
          ---------------------------------------------------------------------
          Energy change      -0.0007812060            0.0000050000      NO
          RMS gradient        0.2168723393            0.0001000000      NO
          MAX gradient        0.2168723393            0.0003000000      NO
          RMS step            0.1702408123            0.0020000000      NO
          MAX step            0.1702408123            0.0040000000      NO
          ........................................................
          Max(Bonds)      0.0901      Max(Angles)    0.00
          Max(Dihed)        0.00      Max(Improp)    0.00
          ---------------------------------------------------------------------

The optimization has not yet converged - more geometry cycles are needed


    ---------------------------------------------------------------------------
                         Redundant Internal Coordinates
                            (Angstroem and degrees)

        Definition                    Value    dE/dq     Step     New-Value
    ----------------------------------------------------------------------------
     1. B(O   1,C   0)                1.0637 -0.216872  0.0901    1.1538   
    ----------------------------------------------------------------------------

         *************************************************************
         *                GEOMETRY OPTIMIZATION CYCLE   5            *
         *************************************************************
---------------------------------
CARTESIAN COORDINATES (ANGSTROEM)
---------------------------------
  C    -27.890244   12.166670    0.000000
  O    -26.736416   12.166670    0.000000

----------------------------
CARTESIAN COORDINATES (A.U.)
----------------------------
  NO LB      ZA    FRAG     MASS         X           Y           Z
   0 C     6.0000    0    12.011  -52.704923   22.991674    0.000000
   1 O     8.0000    0    15.999  -50.524504   22.991674    0.000000

--------------------------------
INTERNAL COORDINATES (ANGSTROEM)
--------------------------------
 C      0   0   0     0.000000000000     0.00000000     0.00000000
 O      1   0   0     1.153828070307     0.00000000     0.00000000

---------------------------
INTERNAL COORDINATES (A.U.)
---------------------------
 C      0   0   0     0.000000000000     0.00000000     0.00000000
 O      1   0   0     2.180419058511     0.00000000     0.00000000



           ************************************************************
           *        Program running with 4 parallel MPI-processes     *
           *              working on a common directory               *
           ************************************************************


           ************************************************************
           *        Program running with 4 parallel MPI-processes     *
           *              working on a common directory               *
           ************************************************************

Diagonalization of the overlap matrix:
Smallest eigenvalue                        ... 2.244e-02
Time for diagonalization                   ...    0.000 sec
Threshold for overlap eigenvalues          ... 1.000e-08
Number of eigenvalues below threshold      ... 0
Time for construction of square roots      ...    0.000 sec
Total time needed                          ...    0.001 sec

-------------------
DFT GRID GENERATION
-------------------

General Integration Accuracy     IntAcc      ...  4.340
Radial Grid Type                 RadialGrid  ... Gauss-Chebyshev
Angular Grid (max. acc.)         AngularGrid ... Lebedev-110
Angular grid pruning method      GridPruning ... 3 (G Style)
Weight generation scheme         WeightScheme... Becke
Basis function cutoff            BFCut       ...    1.0000e-11
Integration weight cutoff        WCut        ...    1.0000e-14
Grids for H and He will be reduced by one unit

# of grid points (after initial pruning)     ...   3372 (   0.0 sec)
# of grid points (after weights+screening)   ...   3345 (   0.0 sec)
nearest neighbour list constructed           ...    0.0 sec
Grid point re-assignment to atoms done       ...    0.0 sec
Grid point division into batches done        ...    0.0 sec
Reduced shell lists constructed in    0.0 sec

Total number of grid points                  ...     3345
Total number of batches                      ...       53
Average number of points per batch           ...       63
Average number of grid points per atom       ...     1672
Average number of shells per batch           ...     9.93 (82.78%)
[...]

---------------------------
INTERNAL COORDINATES (A.U.)
---------------------------
 C      0   0   0     0.000000000000     0.00000000     0.00000000
 O      1   0   0     2.144241723562     0.00000000     0.00000000

---------------------
BASIS SET INFORMATION
---------------------
There are 2 groups of distinct atoms

 Group   1 Type C   : 17s4p1d contracted to 3s2p1d pattern {881/31/1}
 Group   2 Type O   : 17s4p1d contracted to 3s2p1d pattern {881/31/1}

Atom   0C    basis set group =>   1
Atom   1O    basis set group =>   2


           ************************************************************
           *        Program running with 4 parallel MPI-processes     *
           *              working on a common directory               *
           ************************************************************
------------------------------------------------------------------------------
                           ORCA GTO INTEGRAL CALCULATION
------------------------------------------------------------------------------

                         BASIS SET STATISTICS AND STARTUP INFO

 # of primitive gaussian shells          ...   44
 # of primitive gaussian functions       ...   68
 # of contracted shells                  ...   12
 # of contracted basis functions         ...   28
 Highest angular momentum                ...    2
 Maximum contraction depth               ...    8
 Integral package used                   ... LIBINT
 Integral threshhold            Thresh   ...  2.500e-11
 Primitive cut-off              TCut     ...  2.500e-12


------------------------------ INTEGRAL EVALUATION ----------------------------


 * One electron integrals 
 Pre-screening matrix                    ... done
 Shell pair data                         ... done (   0.000 sec)



           ************************************************************
           *        Program running with 4 parallel MPI-processes     *
           *              working on a common directory               *
           ************************************************************
-------------------------------------------------------------------------------
                                 ORCA SCF
-------------------------------------------------------------------------------

------------
SCF SETTINGS
------------
Hamiltonian:
 Density Functional     Method          .... DFT(GTOs)
 Exchange Functional    Exchange        .... B88
   X-Alpha parameter    XAlpha          ....  0.666667
   Becke's b parameter  XBeta           ....  0.004200
 Correlation Functional Correlation     .... LYP
 LDA part of GGA corr.  LDAOpt          .... VWN-5
 Gradients option       PostSCFGGA      .... off
 Hybrid DFT is turned on
   Fraction HF Exchange ScalHFX         ....  0.200000
   Scaling of DF-GGA-X  ScalDFX         ....  0.720000
   Scaling of DF-GGA-C  ScalDFC         ....  0.810000
   Scaling of DF-LDA-C  ScalLDAC        ....  1.000000
   Perturbative correction              ....  0.000000
   Density functional embedding theory  .... OFF
   NL short-range parameter             ....  4.800000


General Settings:
 Integral files         IntName         .... .inp
 Hartree-Fock type      HFTyp           .... RHF
 Total Charge           Charge          ....    0
 Multiplicity           Mult            ....    1
 Number of Electrons    NEL             ....   14
 Basis Dimension        Dim             ....   28
 Nuclear Repulsion      ENuc            ....     22.3855358622 Eh

Convergence Acceleration:
 DIIS                   CNVDIIS         .... on
   Start iteration      DIISMaxIt       ....    12
   Startup error        DIISStart       ....  0.200000
   # of expansion vecs  DIISMaxEq       ....     5
   Bias factor          DIISBfac        ....   1.050
   Max. coefficient     DIISMaxC        ....  10.000
 Newton-Raphson         CNVNR           .... off
 SOSCF                  CNVSOSCF        .... on
   Start iteration      SOSCFMaxIt      ....   150
   Startup grad/error   SOSCFStart      ....  0.003300
 Level Shifting         CNVShift        .... on
   Level shift para.    LevelShift      ....    0.2500
   Turn off err/grad.   ShiftErr        ....    0.0010
 Zerner damping         CNVZerner       .... off
 Static damping         CNVDamp         .... on
   Fraction old density DampFac         ....    0.7000
   Max. Damping (<1)    DampMax         ....    0.9800
   Min. Damping (>=0)   DampMin         ....    0.0000
   Turn off err/grad.   DampErr         ....    0.1000
 Fernandez-Rico         CNVRico         .... off

SCF Procedure:
 Maximum # iterations   MaxIter         ....   125
 SCF integral mode      SCFMode         .... Direct
   Integral package                     .... LIBINT
 Reset frequency        DirectResetFreq ....    20
 Integral Threshold     Thresh          ....  2.500e-11 Eh
 Primitive CutOff       TCut            ....  2.500e-12 Eh

Convergence Tolerance:
 Convergence Check Mode ConvCheckMode   .... Total+1el-Energy
 Convergence forced     ConvForced      .... 0
 Energy Change          TolE            ....  1.000e-08 Eh
 1-El. energy change                    ....  1.000e-05 Eh
 Orbital Gradient       TolG            ....  1.000e-05
 Orbital Rotation angle TolX            ....  1.000e-05
 DIIS Error             TolErr          ....  5.000e-07


Diagonalization of the overlap matrix:
Smallest eigenvalue                        ... 2.191e-02
Time for diagonalization                   ...    0.000 sec
Threshold for overlap eigenvalues          ... 1.000e-08
Number of eigenvalues below threshold      ... 0
Time for construction of square roots      ...    0.000 sec
Total time needed                          ...    0.001 sec

---------------------
INITIAL GUESS: MOREAD
---------------------
Guess MOs are being read from file: .inp.gbw
Input Geometry matches current geometry (good)
Input basis set matches current basis set (good)
MOs were renormalized
MOs were reorthogonalized (Cholesky)
                      ------------------
                      INITIAL GUESS DONE (   0.0 sec)
                      ------------------
-------------------
DFT GRID GENERATION
-------------------

General Integration Accuracy     IntAcc      ...  4.340
Radial Grid Type                 RadialGrid  ... Gauss-Chebyshev
Angular Grid (max. acc.)         AngularGrid ... Lebedev-110
Angular grid pruning method      GridPruning ... 3 (G Style)
Weight generation scheme         WeightScheme... Becke
Basis function cutoff            BFCut       ...    1.0000e-11
Integration weight cutoff        WCut        ...    1.0000e-14
Grids for H and He will be reduced by one unit

# of grid points (after initial pruning)     ...   3372 (   0.0 sec)
# of grid points (after weights+screening)   ...   3345 (   0.0 sec)
nearest neighbour list constructed           ...    0.0 sec
Grid point re-assignment to atoms done       ...    0.0 sec
Grid point division into batches done        ...    0.0 sec
Reduced shell lists constructed in    0.0 sec

Total number of grid points                  ...     3345
Total number of batches                      ...       53
Average number of points per batch           ...       63
Average number of grid points per atom       ...     1672
Average number of shells per batch           ...     9.93 (82.78%)
Average number of basis functions per batch  ...    23.13 (82.62%)
Average number of large shells per batch     ...     8.33 (83.89%)
Average number of large basis fcns per batch ...    20.33 (87.90%)
Maximum spatial batch extension              ...  16.33, 23.60, 31.36 au
Average spatial batch extension              ...   2.79,  3.13,  3.52 au

Time for grid setup =    0.007 sec

--------------
SCF ITERATIONS
--------------
ITER       Energy         Delta-E        Max-DP      RMS-DP      [F,P]     Damp
               ***  Starting incremental Fock matrix formation  ***
                      *** Initiating the SOSCF procedure ***
                      *** Re-Reading the Fockian *** 
                      *** Removing any level shift *** 
ITER      Energy       Delta-E        Grad      Rot      Max-DP    RMS-DP
  0   -113.26900305 -113.2690030497  0.000001  0.000001  0.000002  0.000000
               *** Restarting incremental Fock matrix formation ***
                  ***Gradient check signals convergence***
              ***Rediagonalizing the Fockian in SOSCF/NRSCF***

               *****************************************************
               *                     SUCCESS                       *
               *           SCF CONVERGED AFTER   1 CYCLES          *
               *****************************************************

Setting up the final grid:

General Integration Accuracy     IntAcc      ...  4.670
Radial Grid Type                 RadialGrid  ... Gauss-Chebyshev
Angular Grid (max. acc.)         AngularGrid ... Lebedev-302
Angular grid pruning method      GridPruning ... 3 (G Style)
Weight generation scheme         WeightScheme... Becke
Basis function cutoff            BFCut       ...    1.0000e-11
Integration weight cutoff        WCut        ...    1.0000e-14
Grids for H and He will be reduced by one unit

# of grid points (after initial pruning)     ...  12424 (   0.0 sec)
# of grid points (after weights+screening)   ...  12393 (   0.0 sec)
nearest neighbour list constructed           ...    0.0 sec
Grid point re-assignment to atoms done       ...    0.0 sec
Grid point division into batches done        ...    0.1 sec
Reduced shell lists constructed in    0.1 sec

Total number of grid points                  ...    12393
Total number of batches                      ...      195
Average number of points per batch           ...       63
Average number of grid points per atom       ...     6196
Average number of shells per batch           ...     7.72 (64.33%)
Average number of basis functions per batch  ...    17.80 (63.57%)
Average number of large shells per batch     ...     6.46 (83.68%)
Average number of large basis fcns per batch ...    15.58 (87.53%)
Maximum spatial batch extension              ...  15.75, 24.37, 22.15 au
Average spatial batch extension              ...   1.66,  1.86,  1.83 au

Final grid set up in    0.1 sec
Final integration                            ... done (   0.0 sec)
Change in XC energy                          ...    -0.000106595
Integrated number of electrons               ...    13.999993548
Previous integrated no of electrons          ...    13.999811883

----------------
TOTAL SCF ENERGY
----------------

Total Energy       :         -113.26910964 Eh           -3082.20917 eV

Components:
Nuclear Repulsion  :           22.38553586 Eh             609.14140 eV
Electronic Energy  :         -135.65464551 Eh           -3691.35057 eV
One Electron Energy:         -198.11585084 Eh           -5391.00637 eV
Two Electron Energy:           62.46120533 Eh            1699.65581 eV

Virial components:
Potential Energy   :         -225.95343102 Eh           -6148.50544 eV
Kinetic Energy     :          112.68432138 Eh            3066.29627 eV
Virial Ratio       :            2.00518962


DFT components:
N(Alpha)           :        6.999996773830 electrons
N(Beta)            :        6.999996773830 electrons
N(Total)           :       13.999993547660 electrons
E(X)               :      -10.611119160204 Eh       
E(C)               :       -0.573157959790 Eh       
E(XC)              :      -11.184277119994 Eh       
DFET-embed. en.    :        0.000000000000 Eh       

---------------
SCF CONVERGENCE
---------------

  Last Energy change         ...   -1.5731e-11  Tolerance :   1.0000e-08
  Last MAX-Density change    ...    1.5133e-06  Tolerance :   1.0000e-07
  Last RMS-Density change    ...    1.3672e-07  Tolerance :   5.0000e-09
  Last Orbital Gradient      ...    5.2498e-07  Tolerance :   1.0000e-05
  Last Orbital Rotation      ...    8.1967e-07  Tolerance :   1.0000e-05

             **** THE GBW FILE WAS UPDATED (.inp.gbw) ****
             **** DENSITY FILE WAS UPDATED (.inp.scfp) ****
             **** ENERGY FILE WAS UPDATED (.inp.en.tmp) ****
             **** THE GBW FILE WAS UPDATED (.inp.gbw) ****
             **** DENSITY FILE WAS UPDATED (.inp.scfp) ****
----------------
ORBITAL ENERGIES
----------------

  NO   OCC          E(Eh)            E(eV) 
   0   2.0000     -19.245550      -523.6980 
   1   2.0000     -10.300431      -280.2890 
   2   2.0000      -1.159682       -31.5566 
   3   2.0000      -0.570583       -15.5263 
   4   2.0000      -0.467512       -12.7216 
   5   2.0000      -0.467512       -12.7216 
   6   2.0000      -0.370076       -10.0703 
   7   0.0000      -0.020935        -0.5697 
   8   0.0000      -0.020935        -0.5697 
   9   0.0000       0.245062         6.6685 
  10   0.0000       0.458919        12.4878 
  11   0.0000       0.458919        12.4878 
  12   0.0000       0.546082        14.8596 
  13   0.0000       0.739764        20.1300 
  14   0.0000       0.817705        22.2509 
  15   0.0000       0.941805        25.6278 
  16   0.0000       0.941805        25.6278 
  17   0.0000       1.111120        30.2351 
  18   0.0000       1.111215        30.2377 
  19   0.0000       1.290446        35.1148 
  20   0.0000       1.290446        35.1148 
  21   0.0000       1.660603        45.1873 
  22   0.0000       1.983230        53.9664 
  23   0.0000       2.568818        69.9011 
  24   0.0000       2.569703        69.9252 
  25   0.0000       3.036193        82.6190 
  26   0.0000       3.036193        82.6190 
  27   0.0000       3.450467        93.8920 

                    ********************************
                    * MULLIKEN POPULATION ANALYSIS *
                    ********************************

-----------------------
MULLIKEN ATOMIC CHARGES
-----------------------
   0 C :   -0.013520
   1 O :    0.013520
Sum of atomic charges:    0.0000000

--------------------------------
MULLIKEN REDUCED ORBITAL CHARGES
--------------------------------
  0 C s       :     3.808316  s :     3.808316
      pz      :     0.541207  p :     2.095087
      px      :     1.012672
      py      :     0.541207
      dz2     :     0.008670  d :     0.110117
      dxz     :     0.037718
      dyz     :     0.000000
      dx2y2   :     0.026011
      dxy     :     0.037718
  1 O s       :     3.718777  s :     3.718777
      pz      :     1.414811  p :     4.245830
      px      :     1.416208
      py      :     1.414811
      dz2     :     0.002336  d :     0.021873
      dxz     :     0.006264
      dyz     :     0.000000
      dx2y2   :     0.007009
      dxy     :     0.006264


                     *******************************
                     * LOEWDIN POPULATION ANALYSIS *
                     *******************************

----------------------
LOEWDIN ATOMIC CHARGES
----------------------
   0 C :   -0.166392
   1 O :    0.166392

-------------------------------
LOEWDIN REDUCED ORBITAL CHARGES
-------------------------------
  0 C s       :     3.585388  s :     3.585388
      pz      :     0.563708  p :     2.347882
      px      :     1.220467
      py      :     0.563708
      dz2     :     0.024644  d :     0.233122
      dxz     :     0.067274
      dyz     :     0.000000
      dx2y2   :     0.073931
      dxy     :     0.067274
  1 O s       :     3.487732  s :     3.487732
      pz      :     1.362542  p :     4.311793
      px      :     1.586709
      py      :     1.362542
      dz2     :     0.005282  d :     0.034083
      dxz     :     0.006476
      dyz     :     0.000000
      dx2y2   :     0.015847
      dxy     :     0.006476


                      *****************************
                      * MAYER POPULATION ANALYSIS *
                      *****************************

  NA   - Mulliken gross atomic population
  ZA   - Total nuclear charge
  QA   - Mulliken gross atomic charge
  VA   - Mayer's total valence
  BVA  - Mayer's bonded valence
  FA   - Mayer's free valence

  ATOM       NA         ZA         QA         VA         BVA        FA
  0 C      6.0135     6.0000    -0.0135     2.6218     2.6218     0.0000
  1 O      7.9865     8.0000     0.0135     2.6218     2.6218     0.0000

  Mayer bond orders larger than 0.100000
B(  0-C ,  1-O ) :   2.6218 

-------
TIMINGS
-------

Total SCF time: 0 days 0 hours 0 min 0 sec 

Total time                  ....       0.440 sec
Sum of individual times     ....       0.282 sec  ( 64.1%)

Fock matrix formation       ....       0.209 sec  ( 47.5%)
  XC integration            ....       0.013 sec  (  6.1% of F)
    Basis function eval.    ....       0.004 sec  ( 33.2% of XC)
    Density eval.           ....       0.001 sec  ( 11.6% of XC)
    XC-Functional eval.     ....       0.002 sec  ( 18.2% of XC)
    XC-Potential eval.      ....       0.001 sec  ( 11.6% of XC)
Diagonalization             ....       0.000 sec  (  0.0%)
Density matrix formation    ....       0.000 sec  (  0.0%)
Population analysis         ....       0.000 sec  (  0.1%)
Initial guess               ....       0.001 sec  (  0.2%)
Orbital Transformation      ....       0.000 sec  (  0.0%)
Orbital Orthonormalization  ....       0.000 sec  (  0.0%)
DIIS solution               ....       0.000 sec  (  0.0%)
SOSCF solution              ....       0.000 sec  (  0.0%)
Grid generation             ....       0.071 sec  ( 16.2%)

-------------------------   --------------------
FINAL SINGLE POINT ENERGY      -113.269109644398
-------------------------   --------------------

                                *** OPTIMIZATION RUN DONE ***

                            ***************************************
                            *     ORCA property calculations      *
                            ***************************************

                                    ---------------------
                                    Active property flags
                                    ---------------------
   (+) Dipole Moment


------------------------------------------------------------------------------
                       ORCA ELECTRIC PROPERTIES CALCULATION
------------------------------------------------------------------------------

Dipole Moment Calculation                       ... on
Quadrupole Moment Calculation                   ... off
Polarizability Calculation                      ... off
GBWName                                         ... .inp.gbw
Electron density file                           ... .inp.scfp
The origin for moment calculation is the CENTER OF MASS  = (-51.462067, 22.991674  0.000000)

-------------
DIPOLE MOMENT
-------------
                                X             Y             Z
Electronic contribution:      0.06415      -0.00000      -0.00000
Nuclear contribution   :      0.00720       0.00000       0.00000
                        -----------------------------------------
Total Dipole Moment    :      0.07134      -0.00000      -0.00000
                        -----------------------------------------
Magnitude (a.u.)       :      0.07134
Magnitude (Debye)      :      0.18134



--------------------
Rotational spectrum 
--------------------
 
Rotational constants in cm-1:     0.000000     1.908483     1.908483 
Rotational constants in MHz :     0.000000 57214.875976 57214.875976 

 Dipole components along the rotational axes: 
x,y,z [a.u.] :    -0.071345    -0.000000    -0.000000 
x,y,z [Debye]:    -0.181344    -0.000000    -0.000000 

 

Timings for individual modules:

Sum of individual times         ...       15.571 sec (=   0.260 min)
GTO integral calculation        ...        2.634 sec (=   0.044 min)  16.9 %
SCF iterations                  ...       10.566 sec (=   0.176 min)  67.9 %
SCF Gradient evaluation         ...        2.253 sec (=   0.038 min)  14.5 %
Geometry relaxation             ...        0.117 sec (=   0.002 min)   0.8 %
                             ****ORCA TERMINATED NORMALLY****
TOTAL RUN TIME: 0 days 0 hours 0 minutes 15 seconds 787 msec
