
                                 *****************
                                 * O   R   C   A *
                                 *****************

           --- An Ab Initio, DFT and Semiempirical electronic structure package ---

                  #######################################################
                  #                        -***-                        #
                  #          Department of theory and spectroscopy      #
                  #               Directorship: Frank Neese             #
                  #        Max Planck Institute fuer Kohlenforschung    #
                  #                Kaiser Wilhelm Platz 1               #
                  #                 D-45470 Muelheim/Ruhr               #
                  #                      Germany                        #
                  #                                                     #
                  #                  All rights reserved                #
                  #                        -***-                        #
                  #######################################################


                         Program Version 4.2.1 -  RELEASE  -


 With contributions from (in alphabetic order):
   Daniel Aravena         : Magnetic Suceptibility
   Michael Atanasov       : Ab Initio Ligand Field Theory (pilot matlab implementation)
   Alexander A. Auer      : GIAO ZORA, VPT2
   Ute Becker             : Parallelization
   Giovanni Bistoni       : ED, misc. LED, open-shell LED, HFLD
   Martin Brehm           : Molecular dynamics
   Dmytro Bykov           : SCF Hessian
   Vijay G. Chilkuri      : MRCI spin determinant printing, contributions to CSF-ICE
   Dipayan Datta          : RHF DLPNO-CCSD density
   Achintya Kumar Dutta   : EOM-CC, STEOM-CC
   Dmitry Ganyushin       : Spin-Orbit,Spin-Spin,Magnetic field MRCI
   Miquel Garcia          : C-PCM Hessian, Gaussian charge scheme
   Yang Guo               : DLPNO-NEVPT2, CIM, IAO-localization
   Andreas Hansen         : Spin unrestricted coupled pair/coupled cluster methods
   Benjamin Helmich-Paris : CASSCF linear response (MC-RPA)
   Lee Huntington         : MR-EOM, pCC
   Robert Izsak           : Overlap fitted RIJCOSX, COSX-SCS-MP3, EOM
   Christian Kollmar      : KDIIS, OOCD, Brueckner-CCSD(T), CCSD density
   Simone Kossmann        : Meta GGA functionals, TD-DFT gradient, OOMP2, MP2 Hessian
   Martin Krupicka        : AUTO-CI
   Lucas Lang             : DCDCAS
   Dagmar Lenk            : GEPOL surface, SMD
   Dimitrios Liakos       : Extrapolation schemes; Compound Job, initial MDCI parallelization
   Dimitrios Manganas     : Further ROCIS development; embedding schemes
   Dimitrios Pantazis     : SARC Basis sets
   Taras Petrenko         : DFT Hessian,TD-DFT gradient, ASA, ECA, R-Raman, ABS, FL, XAS/XES, NRVS
   Peter Pinski           : DLPNO-MP2, DLPNO-MP2 Gradient
   Christoph Reimann      : Effective Core Potentials
   Marius Retegan         : Local ZFS, SOC
   Christoph Riplinger    : Optimizer, TS searches, QM/MM, DLPNO-CCSD(T), (RO)-DLPNO pert. Triples
   Tobias Risthaus        : Range-separated hybrids, TD-DFT gradient, RPA, STAB
   Michael Roemelt        : Original ROCIS implementation
   Masaaki Saitow         : Open-shell DLPNO-CCSD energy and density
   Barbara Sandhoefer     : DKH picture change effects
   Avijit Sen             : IP-ROCIS
   Kantharuban Sivalingam : CASSCF convergence, NEVPT2, FIC-MRCI
   Bernardo de Souza      : ESD, SOC TD-DFT
   Georgi Stoychev        : AutoAux, RI-MP2 NMR
   Willem Van den Heuvel  : Paramagnetic NMR
   Boris Wezisla          : Elementary symmetry handling
   Frank Wennmohs         : Technical directorship


 We gratefully acknowledge several colleagues who have allowed us to
 interface, adapt or use parts of their codes:
   Stefan Grimme, W. Hujo, H. Kruse,             : VdW corrections, initial TS optimization,
                  C. Bannwarth                     DFT functionals, gCP, sTDA/sTD-DF
   Ed Valeev, F. Pavosevic, A. Kumar             : LibInt (2-el integral package), F12 methods
   Garnet Chan, S. Sharma, J. Yang, R. Olivares  : DMRG
   Ulf Ekstrom                                   : XCFun DFT Library
   Mihaly Kallay                                 : mrcc  (arbitrary order and MRCC methods)
   Andreas Klamt, Michael Diedenhofen            : otool_cosmo (COSMO solvation model)
   Jiri Pittner, Ondrej Demel                    : Mk-CCSD
   Frank Weinhold                                : gennbo (NPA and NBO analysis)
   Christopher J. Cramer and Donald G. Truhlar   : smd solvation model
   Lars Goerigk                                  : TD-DFT with DH, B97 family of functionals
   V. Asgeirsson, H. Jonsson                     : NEB implementation
   FAccTs GmbH                                   : IRC, NEB, NEB-TS, Multilevel, MM, QM/MM, CI optimization
   S Lehtola, MJT Oliveira, MAL Marques          : LibXC Library


 Your calculation uses the libint2 library for the computation of 2-el integrals
 For citations please refer to: http://libint.valeyev.net

 Your ORCA version has been built with support for libXC version: 4.2.3
 For citations please refer to: https://tddft.org/programs/libxc/

 This ORCA versions uses:
   CBLAS   interface :  Fast vector & matrix operations
   LAPACKE interface :  Fast linear algebra routines
   SCALAPACK package :  Parallel linear algebra routines




***************************************
The coordinates will be read from file: carbon_monoxide_B3LYP_cc-pVTZ_OPT.xyz
***************************************


----- Orbital basis set information -----
Your calculation utilizes the basis: aug-cc-pVTZ 
    H, B-Ne : Obtained from the ccRepo (grant-hill.group.shef.ac.uk/ccrepo) Feb. 2017
              R. A. Kendall, T. H. Dunning, Jr., R. J. Harrison, J. Chem. Phys. 96, 6796 (1992)
         He : Obtained from the ccRepo (grant-hill.group.shef.ac.uk/ccrepo) Feb. 2017
              D. E. Woon, T. H. Dunning, Jr., J. Chem. Phys. 100, 2975 (1994)
  Li-Be, Na : Obtained from the ccRepo (grant-hill.group.shef.ac.uk/ccrepo) Feb. 2017
              B. P. Prascher, D. E. Woon, K. A. Peterson, T. H. Dunning, Jr., A. K. Wilson, Theor. Chem. Acc. 128, 69 (2011)
         Mg : Obtained from the Peterson Research Group Website (tyr0.chem.wsu.edu/~kipeters) Feb. 2017
              B. P. Prascher, D. E. Woon, K. A. Peterson, T. H. Dunning, Jr., A. K. Wilson, Theor. Chem. Acc. 128, 69 (2011)
      Al-Ar : Obtained from the ccRepo (grant-hill.group.shef.ac.uk/ccrepo) Feb. 2017
              D. E. Woon, T. H. Dunning, Jr., J. Chem. Phys. 98, 1358 (1993)
      Sc-Zn : Obtained from the ccRepo (grant-hill.group.shef.ac.uk/ccrepo) Feb. 2017
              N. B. Balabanov, K. A. Peterson, J. Chem. Phys. 123, 064107 (2005)
              N. B. Balabanov, K. A. Peterson, J. Chem. Phys. 125, 074110 (2006)
      Ga-Kr : Obtained from the ccRepo (grant-hill.group.shef.ac.uk/ccrepo) Feb. 2017
              A. K. Wilson, D. E. Woon, K. A. Peterson, T. H. Dunning, Jr., J. Chem. Phys. 110, 7667 (1999)
     Ag, Au : Obtained from the Peterson Research Group Website (tyr0.chem.wsu.edu/~kipeters) Feb. 2017
              K. A. Peterson, C. Puzzarini, Theor. Chem. Acc. 114, 283 (2005)

================================================================================
                                        WARNINGS
                       Please study these warnings very carefully!
================================================================================


WARNING: The frozen-core approximation for MP2-gradient calculations is turned on by default.

WARNING: Geometry Optimization
  ===> : Switching off AutoStart
         For restart on a previous wavefunction, please use MOREAD

WARNING: Post HF methods need fully converged wavefunctions
  ===> : Setting SCFConvForced true
         You can overwrite this default with %scf ConvForced false 


INFO   : the flag for use of LIBINT has been found!

================================================================================
                                       INPUT FILE
================================================================================
NAME = carbon_monoxide_MP2_aug-cc-pVTZ_OPT.inp
|  1> # carbon_monoxide MP2/aug-cc-pVTZ Optimization
|  2> 
|  3> ! MP2 aug-cc-pVTZ TightSCF Opt PAL4
|  4> 
|  5> * xyzfile 0 1 carbon_monoxide_B3LYP_cc-pVTZ_OPT.xyz
|  6> 
|  7> 
|  8>                          ****END OF INPUT****
================================================================================

                       *****************************
                       * Geometry Optimization Run *
                       *****************************

Geometry optimization settings:
Update method            Update   .... BFGS
Choice of coordinates    CoordSys .... Z-matrix Internals
Initial Hessian          InHess   .... Almoef's Model

Convergence Tolerances:
Energy Change            TolE     ....  5.0000e-06 Eh
Max. Gradient            TolMAXG  ....  3.0000e-04 Eh/bohr
RMS Gradient             TolRMSG  ....  1.0000e-04 Eh/bohr
Max. Displacement        TolMAXD  ....  4.0000e-03 bohr
RMS Displacement         TolRMSD  ....  2.0000e-03 bohr
Strict Convergence                ....  False
------------------------------------------------------------------------------
                        ORCA OPTIMIZATION COORDINATE SETUP
------------------------------------------------------------------------------

The optimization will be done in new redundant internal coordinates
Making redundant internal coordinates   ...  (new redundants) done
Evaluating the initial hessian          ...  (Almloef) done
Evaluating the coordinates              ...  done
Calculating the B-matrix                .... done
Calculating the G-matrix                .... done
Diagonalizing the G-matrix              .... done
The first mode is                       ....    0
The number of degrees of freedom        ....    1

    -----------------------------------------------------------------
                    Redundant Internal Coordinates


    -----------------------------------------------------------------
         Definition                    Initial Value    Approx d2E/dq
    -----------------------------------------------------------------
      1. B(O   1,C   0)                  1.1263         1.474223   
    -----------------------------------------------------------------

Number of atoms                         .... 2
Number of degrees of freedom            .... 1

         *************************************************************
         *                GEOMETRY OPTIMIZATION CYCLE   1            *
         *************************************************************
---------------------------------
CARTESIAN COORDINATES (ANGSTROEM)
---------------------------------
  C    -27.876489   12.166670    0.000000
  O    -26.750171   12.166670    0.000000

----------------------------
CARTESIAN COORDINATES (A.U.)
----------------------------
  NO LB      ZA    FRAG     MASS         X           Y           Z
   0 C     6.0000    0    12.011  -52.678930   22.991674    0.000000
   1 O     8.0000    0    15.999  -50.550497   22.991674    0.000000

--------------------------------
INTERNAL COORDINATES (ANGSTROEM)
--------------------------------
 C      0   0   0     0.000000000000     0.00000000     0.00000000
 O      1   0   0     1.126318020451     0.00000000     0.00000000

---------------------------
INTERNAL COORDINATES (A.U.)
---------------------------
 C      0   0   0     0.000000000000     0.00000000     0.00000000
 O      1   0   0     2.128432598353     0.00000000     0.00000000

---------------------
BASIS SET INFORMATION
---------------------
There are 2 groups of distinct atoms

 Group   1 Type C   : 19s6p3d2f contracted to 5s4p3d2f pattern {88111/3111/111/11}
 Group   2 Type O   : 19s6p3d2f contracted to 5s4p3d2f pattern {88111/3111/111/11}

Atom   0C    basis set group =>   1
Atom   1O    basis set group =>   2


           ************************************************************
           *        Program running with 4 parallel MPI-processes     *
           *              working on a common directory               *
           ************************************************************
------------------------------------------------------------------------------
                           ORCA GTO INTEGRAL CALCULATION
------------------------------------------------------------------------------

                         BASIS SET STATISTICS AND STARTUP INFO

 # of primitive gaussian shells          ...   60
 # of primitive gaussian functions       ...  132
 # of contracted shells                  ...   28
 # of contracted basis functions         ...   92
 Highest angular momentum                ...    3
 Maximum contraction depth               ...    8
 Integral package used                   ... LIBINT
 Integral threshhold            Thresh   ...  2.500e-11
 Primitive cut-off              TCut     ...  2.500e-12


------------------------------ INTEGRAL EVALUATION ----------------------------


 * One electron integrals 
 Pre-screening matrix                    ... done
 Shell pair data                         ... done (   0.000 sec)



           ************************************************************
           *        Program running with 4 parallel MPI-processes     *
           *              working on a common directory               *
           ************************************************************
-------------------------------------------------------------------------------
                                 ORCA SCF
-------------------------------------------------------------------------------

------------
SCF SETTINGS
------------
Hamiltonian:
 Ab initio Hamiltonian  Method          .... Hartree-Fock(GTOs)


General Settings:
 Integral files         IntName         .... carbon_monoxide_MP2_aug-cc-pVTZ_OPT
 Hartree-Fock type      HFTyp           .... RHF
 Total Charge           Charge          ....    0
 Multiplicity           Mult            ....    1
 Number of Electrons    NEL             ....   14
 Basis Dimension        Dim             ....   92
 Nuclear Repulsion      ENuc            ....     22.5518064500 Eh

Convergence Acceleration:
 DIIS                   CNVDIIS         .... on
   Start iteration      DIISMaxIt       ....    12
   Startup error        DIISStart       ....  0.200000
   # of expansion vecs  DIISMaxEq       ....     5
   Bias factor          DIISBfac        ....   1.050
   Max. coefficient     DIISMaxC        ....  10.000
 Newton-Raphson         CNVNR           .... off
 SOSCF                  CNVSOSCF        .... on
   Start iteration      SOSCFMaxIt      ....   150
   Startup grad/error   SOSCFStart      ....  0.003300
 Level Shifting         CNVShift        .... on
   Level shift para.    LevelShift      ....    0.2500
   Turn off err/grad.   ShiftErr        ....    0.0010
 Zerner damping         CNVZerner       .... off
 Static damping         CNVDamp         .... on
   Fraction old density DampFac         ....    0.7000
   Max. Damping (<1)    DampMax         ....    0.9800
   Min. Damping (>=0)   DampMin         ....    0.0000
   Turn off err/grad.   DampErr         ....    0.1000
 Fernandez-Rico         CNVRico         .... off

SCF Procedure:
 Maximum # iterations   MaxIter         ....   125
 SCF integral mode      SCFMode         .... Direct
   Integral package                     .... LIBINT
 Reset frequency        DirectResetFreq ....    20
 Integral Threshold     Thresh          ....  2.500e-11 Eh
 Primitive CutOff       TCut            ....  2.500e-12 Eh

Convergence Tolerance:
 Convergence Check Mode ConvCheckMode   .... Total+1el-Energy
 Convergence forced     ConvForced      .... 1
 Energy Change          TolE            ....  1.000e-08 Eh
 1-El. energy change                    ....  1.000e-05 Eh
 Orbital Gradient       TolG            ....  1.000e-05
 Orbital Rotation angle TolX            ....  1.000e-05
 DIIS Error             TolErr          ....  5.000e-07


Diagonalization of the overlap matrix:
Smallest eigenvalue                        ... 4.729e-04
Time for diagonalization                   ...    0.001 sec
Threshold for overlap eigenvalues          ... 1.000e-08
Number of eigenvalues below threshold      ... 0
Time for construction of square roots      ...    0.001 sec
Total time needed                          ...    0.002 sec

-------------------
DFT GRID GENERATION
-------------------

General Integration Accuracy     IntAcc      ...  4.340
Radial Grid Type                 RadialGrid  ... Gauss-Chebyshev
Angular Grid (max. acc.)         AngularGrid ... Lebedev-110
Angular grid pruning method      GridPruning ... 3 (G Style)
Weight generation scheme         WeightScheme... Becke
Basis function cutoff            BFCut       ...    1.0000e-11
Integration weight cutoff        WCut        ...    1.0000e-14
Grids for H and He will be reduced by one unit

# of grid points (after initial pruning)     ...   3372 (   0.0 sec)
# of grid points (after weights+screening)   ...   3345 (   0.0 sec)
nearest neighbour list constructed           ...    0.0 sec
Grid point re-assignment to atoms done       ...    0.0 sec
Grid point division into batches done        ...    0.0 sec
Reduced shell lists constructed in    0.0 sec

Total number of grid points                  ...     3345
Total number of batches                      ...       54
Average number of points per batch           ...       61
Average number of grid points per atom       ...     1672
Average number of shells per batch           ...    23.00 (82.14%)
Average number of basis functions per batch  ...    75.13 (81.67%)
Average number of large shells per batch     ...    20.47 (88.99%)
Average number of large basis fcns per batch ...    67.53 (89.88%)
Maximum spatial batch extension              ...  16.32, 23.60, 31.36 au
Average spatial batch extension              ...   2.73,  3.07,  3.46 au

Time for grid setup =    0.008 sec

------------------------------
INITIAL GUESS: MODEL POTENTIAL
------------------------------
Loading Hartree-Fock densities                     ... done
Calculating cut-offs                               ... done
Setting up the integral package                    ... done
Initializing the effective Hamiltonian             ... done
Starting the Coulomb interaction                   ... done (   0.0 sec)
Reading the grid                                   ... done
Mapping shells                                     ... done
Starting the XC term evaluation                    ... done (   0.0 sec)
Transforming the Hamiltonian                       ... done (   0.0 sec)
Diagonalizing the Hamiltonian                      ... done (   0.0 sec)
Back transforming the eigenvectors                 ... done (   0.0 sec)
Now organizing SCF variables                       ... done
                      ------------------
                      INITIAL GUESS DONE (   0.1 sec)
                      ------------------
--------------
SCF ITERATIONS
--------------
ITER       Energy         Delta-E        Max-DP      RMS-DP      [F,P]     Damp
               ***  Starting incremental Fock matrix formation  ***
  0   -112.7322350717   0.000000000000 0.02706844  0.00079507  0.2433610 0.7000
  1   -112.7496529363  -0.017417864578 0.01940035  0.00055496  0.1484193 0.7000
                               ***Turning on DIIS***
  2   -112.7596307609  -0.009977824651 0.01377927  0.00036471  0.1083585 0.7000
  3   -112.8695279940  -0.109897233134 0.03332885  0.00086369  0.0804221 0.0000
  4   -112.7887990837   0.080728910330 0.00589388  0.00012364  0.0054535 0.0000
                      *** Initiating the SOSCF procedure ***
                           *** Shutting down DIIS ***
                      *** Re-Reading the Fockian *** 
                      *** Removing any level shift *** 
ITER      Energy       Delta-E        Grad      Rot      Max-DP    RMS-DP
  5   -112.78100096   0.0077981275  0.000944  0.000944  0.001312  0.000042
               *** Restarting incremental Fock matrix formation ***
  6   -112.78166291  -0.0006619507  0.000478  0.000580  0.000675  0.000023
  7   -112.78166633  -0.0000034218  0.000205  0.000405  0.000420  0.000015
  8   -112.78166689  -0.0000005612  0.000124  0.000099  0.000101  0.000004
  9   -112.78166703  -0.0000001416  0.000010  0.000013  0.000017  0.000001
                 **** Energy Check signals convergence ****
              ***Rediagonalizing the Fockian in SOSCF/NRSCF***

               *****************************************************
               *                     SUCCESS                       *
               *           SCF CONVERGED AFTER  10 CYCLES          *
               *****************************************************


----------------
TOTAL SCF ENERGY
----------------

Total Energy       :         -112.78166703 Eh           -3068.94518 eV

Components:
Nuclear Repulsion  :           22.55180645 Eh             613.66585 eV
Electronic Energy  :         -135.33347348 Eh           -3682.61103 eV
One Electron Energy:         -198.27454843 Eh           -5395.32476 eV
Two Electron Energy:           62.94107495 Eh            1712.71372 eV

Virial components:
Potential Energy   :         -225.38152058 Eh           -6132.94297 eV
Kinetic Energy     :          112.59985354 Eh            3063.99779 eV
Virial Ratio       :            2.00161469


---------------
SCF CONVERGENCE
---------------

  Last Energy change         ...   -1.8297e-09  Tolerance :   1.0000e-08
  Last MAX-Density change    ...    5.7537e-06  Tolerance :   1.0000e-07
  Last RMS-Density change    ...    2.4426e-07  Tolerance :   5.0000e-09
  Last Orbital Gradient      ...    3.7418e-06  Tolerance :   1.0000e-05
  Last Orbital Rotation      ...    3.4345e-06  Tolerance :   1.0000e-05

             **** THE GBW FILE WAS UPDATED (carbon_monoxide_MP2_aug-cc-pVTZ_OPT.gbw) ****
             **** DENSITY FILE WAS UPDATED (carbon_monoxide_MP2_aug-cc-pVTZ_OPT.scfp) ****
             **** ENERGY FILE WAS UPDATED (carbon_monoxide_MP2_aug-cc-pVTZ_OPT.en.tmp) ****
             **** THE GBW FILE WAS UPDATED (carbon_monoxide_MP2_aug-cc-pVTZ_OPT.gbw) ****
             **** DENSITY FILE WAS UPDATED (carbon_monoxide_MP2_aug-cc-pVTZ_OPT.scfp) ****
----------------
ORBITAL ENERGIES
----------------

  NO   OCC          E(Eh)            E(eV) 
   0   2.0000     -20.668151      -562.4090 
   1   2.0000     -11.361065      -309.1503 
   2   2.0000      -1.524422       -41.4816 
   3   2.0000      -0.805090       -21.9076 
   4   2.0000      -0.641380       -17.4528 
   5   2.0000      -0.641380       -17.4528 
   6   2.0000      -0.554709       -15.0944 
   7   0.0000       0.069214         1.8834 
   8   0.0000       0.070388         1.9154 
   9   0.0000       0.070388         1.9154 
  10   0.0000       0.087940         2.3930 
  11   0.0000       0.154418         4.2019 
  12   0.0000       0.154418         4.2019 
  13   0.0000       0.185321         5.0428 
  14   0.0000       0.198230         5.3941 
  15   0.0000       0.198230         5.3941 
  16   0.0000       0.268821         7.3150 
  17   0.0000       0.296191         8.0598 
  18   0.0000       0.296191         8.0598 
  19   0.0000       0.392809        10.6889 
  20   0.0000       0.414714        11.2849 
  21   0.0000       0.414714        11.2849 
  22   0.0000       0.500584        13.6216 
  23   0.0000       0.507781        13.8174 
  24   0.0000       0.507781        13.8174 
  25   0.0000       0.670450        18.2439 
  26   0.0000       0.724717        19.7206 
  27   0.0000       0.724717        19.7206 
  28   0.0000       0.792111        21.5544 
  29   0.0000       0.842097        22.9146 
  30   0.0000       0.842097        22.9146 
  31   0.0000       1.008356        27.4388 
  32   0.0000       1.048203        28.5230 
  33   0.0000       1.048203        28.5230 
  34   0.0000       1.072551        29.1856 
  35   0.0000       1.072551        29.1856 
  36   0.0000       1.088701        29.6251 
  37   0.0000       1.088701        29.6251 
  38   0.0000       1.219499        33.1843 
  39   0.0000       1.219499        33.1843 
  40   0.0000       1.254061        34.1247 
  41   0.0000       1.276729        34.7416 
  42   0.0000       1.276729        34.7416 
  43   0.0000       1.381316        37.5875 
  44   0.0000       1.491139        40.5760 
  45   0.0000       1.491139        40.5760 
  46   0.0000       1.539532        41.8928 
  47   0.0000       2.143553        58.3291 
  48   0.0000       2.143553        58.3291 
  49   0.0000       2.178467        59.2791 
  50   0.0000       2.178467        59.2791 
  51   0.0000       2.323408        63.2231 
  52   0.0000       2.323408        63.2231 
  53   0.0000       2.362596        64.2895 
  54   0.0000       2.438831        66.3640 
  55   0.0000       2.576949        70.1223 
  56   0.0000       2.576949        70.1223 
  57   0.0000       2.583722        70.3066 
  58   0.0000       2.583722        70.3066 
  59   0.0000       2.673653        72.7538 
  60   0.0000       2.962976        80.6267 
  61   0.0000       2.962976        80.6267 
  62   0.0000       3.396041        92.4110 
  63   0.0000       3.396041        92.4110 
  64   0.0000       3.420496        93.0764 
  65   0.0000       3.420496        93.0764 
  66   0.0000       3.487641        94.9035 
  67   0.0000       3.625252        98.6481 
  68   0.0000       3.625252        98.6481 
  69   0.0000       3.747491       101.9744 
  70   0.0000       3.747491       101.9744 
  71   0.0000       3.989693       108.5651 
  72   0.0000       3.989693       108.5651 
  73   0.0000       4.030093       109.6644 
  74   0.0000       4.380412       119.1971 
  75   0.0000       5.237526       142.5203 
  76   0.0000       5.237526       142.5203 
  77   0.0000       5.350771       145.6019 
  78   0.0000       6.466486       175.9620 
  79   0.0000       6.466486       175.9620 
  80   0.0000       6.749937       183.6751 
  81   0.0000       6.749937       183.6751 
  82   0.0000       7.026897       191.2116 
  83   0.0000       7.026897       191.2116 
  84   0.0000       7.110614       193.4896 
  85   0.0000       7.110614       193.4896 
  86   0.0000       7.218437       196.4236 
  87   0.0000       7.426672       202.0900 
  88   0.0000       7.426672       202.0900 
  89   0.0000       7.612808       207.1550 
  90   0.0000      12.555475       341.6519 
  91   0.0000      15.347010       417.6134 

                    ********************************
                    * MULLIKEN POPULATION ANALYSIS *
                    ********************************

-----------------------
MULLIKEN ATOMIC CHARGES
-----------------------
   0 C :    0.135510
   1 O :   -0.135510
Sum of atomic charges:   -0.0000000

--------------------------------
MULLIKEN REDUCED ORBITAL CHARGES
--------------------------------
  0 C s       :     3.833072  s :     3.833072
      pz      :     0.443982  p :     1.891394
      px      :     1.003430
      py      :     0.443982
      dz2     :     0.006504  d :     0.118161
      dxz     :     0.046072
      dyz     :    -0.000000
      dx2y2   :     0.019512
      dxy     :     0.046072
      f0      :     0.003095  f :     0.021863
      f+1     :     0.002009
      f-1     :     0.000516
      f+2     :     0.005158
      f-2     :     0.000000
      f+3     :     0.003349
      f-3     :     0.007737
  1 O s       :     3.773548  s :     3.773548
      pz      :     1.481528  p :     4.305237
      px      :     1.342182
      py      :     1.481528
      dz2     :     0.004014  d :     0.052584
      dxz     :     0.018264
      dyz     :     0.000000
      dx2y2   :     0.012042
      dxy     :     0.018264
      f0      :     0.000713  f :     0.004141
      f+1     :     0.000126
      f-1     :     0.000119
      f+2     :     0.001189
      f-2     :     0.000000
      f+3     :     0.000211
      f-3     :     0.001783


                     *******************************
                     * LOEWDIN POPULATION ANALYSIS *
                     *******************************

----------------------
LOEWDIN ATOMIC CHARGES
----------------------
   0 C :   -0.154759
   1 O :    0.154759

-------------------------------
LOEWDIN REDUCED ORBITAL CHARGES
-------------------------------
  0 C s       :     3.228155  s :     3.228155
      pz      :     0.476085  p :     2.200094
      px      :     1.247924
      py      :     0.476085
      dz2     :     0.053476  d :     0.472760
      dxz     :     0.129427
      dyz     :     0.000000
      dx2y2   :     0.160429
      dxy     :     0.129427
      f0      :     0.029597  f :     0.253750
      f+1     :     0.035962
      f-1     :     0.004933
      f+2     :     0.049329
      f-2     :     0.000000
      f+3     :     0.059937
      f-3     :     0.073993
  1 O s       :     3.379482  s :     3.379482
      pz      :     1.274310  p :     4.203955
      px      :     1.655334
      py      :     1.274310
      dz2     :     0.035889  d :     0.201360
      dxz     :     0.028903
      dyz     :     0.000000
      dx2y2   :     0.107666
      dxy     :     0.028903
      f0      :     0.004631  f :     0.060444
      f+1     :     0.013405
      f-1     :     0.000772
      f+2     :     0.007718
      f-2     :     0.000000
      f+3     :     0.022342
      f-3     :     0.011576


                      *****************************
                      * MAYER POPULATION ANALYSIS *
                      *****************************

  NA   - Mulliken gross atomic population
  ZA   - Total nuclear charge
  QA   - Mulliken gross atomic charge
  VA   - Mayer's total valence
  BVA  - Mayer's bonded valence
  FA   - Mayer's free valence

  ATOM       NA         ZA         QA         VA         BVA        FA
  0 C      5.8645     6.0000     0.1355     2.3323     2.3323     0.0000
  1 O      8.1355     8.0000    -0.1355     2.3323     2.3323    -0.0000

  Mayer bond orders larger than 0.100000
B(  0-C ,  1-O ) :   2.3323 

-------
TIMINGS
-------

Total SCF time: 0 days 0 hours 0 min 2 sec 

Total time                  ....       2.797 sec
Sum of individual times     ....       2.636 sec  ( 94.2%)

Fock matrix formation       ....       2.527 sec  ( 90.4%)
Diagonalization             ....       0.005 sec  (  0.2%)
Density matrix formation    ....       0.001 sec  (  0.0%)
Population analysis         ....       0.001 sec  (  0.0%)
Initial guess               ....       0.087 sec  (  3.1%)
Orbital Transformation      ....       0.000 sec  (  0.0%)
Orbital Orthonormalization  ....       0.000 sec  (  0.0%)
DIIS solution               ....       0.003 sec  (  0.1%)
SOSCF solution              ....       0.003 sec  (  0.1%)


           ************************************************************
           *        Program running with 4 parallel MPI-processes     *
           *              working on a common directory               *
           ************************************************************

------------------------------------------------------------------------------
                                ORCA  MP2 
------------------------------------------------------------------------------

Freezing NCore=4 chemical core electrons
MP2 will be done in the AO integral direct mode
The Q1-step will be done using symmetric double matrices
Dimension of the basis                    ...   92
Memory devoted for MP2                    ...  256 MB   
Memory needed for all in one shot         ...    7 MB
Number of MOs that can be treated together...   84      
MP2 density construction                  ... relaxed
The MP2 gradient is requested => amplitudes will be stored on disk
Total number of MOs              ...    5
Number of MOs treated per batch  ...    2 
Number of batches necessary      ...    1 
OPERATORS   0/  0 PASS   0
-----------------------------------------------
 MP2 CORRELATION ENERGY   :     -0.360404468 Eh
-----------------------------------------------


---------------------
MP2 DENSITY FORMATION
---------------------

Completing the external part of the density      ... done
Storing the unrelaxed density                    ... done

Calculating G(D)                                 ... done
Completing the Lagrangian                        ... done
Solving the Z-vector equations                   ... 

------------------------------------------------------------------------------
                           ORCA CP-SCF CALCULATION
------------------------------------------------------------------------------

Input orbitals are from        ... carbon_monoxide_MP2_aug-cc-pVTZ_OPT.gbw
Input Perturbation             ... carbon_monoxide_MP2_aug-cc-pVTZ_OPT.pin.tmp
Wavefunction output            ... carbon_monoxide_MP2_aug-cc-pVTZ_OPT.pout.tmp
Perturbation mode              ... Real perturbation (singlet)
Solver                         ... POPLE
Max. number of iterations      ... 128
Convergence tolerance          ... 1.000e-08
Integral handling              ... Direct
Number of perturbations        ... 1
Number of operators            ... 1
Orbital ranges used for CP-SCF:
 Operator 0:  Orbitals   0...  6  to   7... 91
Variables per vector in CP-SCF ... 595
Number of vectors sought       ... 1
     CP-SCF ITERATION   0: 
     CP-SCF ITERATION   1:      0.000996905629
     CP-SCF ITERATION   2:      0.000045937529
     CP-SCF ITERATION   3:      0.000002281258
     CP-SCF ITERATION   4:      0.000000067839
     CP-SCF ITERATION   5:      0.000000001163
                                                 ... done
Finalizing the relaxed density                   ... done
Transforming P to the AO basis                   ... done
Storing the relaxed density                      ... done

------------------------------------
ENERGY WEIGHTED DENSITY FINALIZATION
------------------------------------

Gathering the parts of the W-matrix              ...                                                      done
Forming the Z-density                            ... done
Transforming Z to the AO basis                   ... done
Calculating G(Z)                                 ... done
Finalizing the W-matrix                          ...                                                      done
Transforming W to the AO basis and storing       ... done

                *********************************************
                * UNRELAXED MP2 DENSITY POPULATION ANALYSIS *
                *********************************************

------------------------------------------------------------------------------
                           ORCA POPULATION ANALYSIS
------------------------------------------------------------------------------
Input electron density              ... carbon_monoxide_MP2_aug-cc-pVTZ_OPT.pmp2ur
BaseName (.gbw .S,...)              ... carbon_monoxide_MP2_aug-cc-pVTZ_OPT

                    ********************************
                    * MULLIKEN POPULATION ANALYSIS *
                    ********************************

-----------------------
MULLIKEN ATOMIC CHARGES
-----------------------
   0 C :    0.107998
   1 O :   -0.107998
Sum of atomic charges:   -0.0000000

--------------------------------
MULLIKEN REDUCED ORBITAL CHARGES
--------------------------------
  0 C s       :     3.816042  s :     3.816042
      pz      :     0.465154  p :     1.926732
      px      :     0.996425
      py      :     0.465154
      dz2     :     0.008620  d :     0.126390
      dxz     :     0.047185
      dyz     :     0.002459
      dx2y2   :     0.020941
      dxy     :     0.047185
      f0      :     0.003122  f :     0.022838
      f+1     :     0.002362
      f-1     :     0.000684
      f+2     :     0.005073
      f-2     :     0.000454
      f+3     :     0.003633
      f-3     :     0.007511
  1 O s       :     3.769496  s :     3.769496
      pz      :     1.461218  p :     4.253408
      px      :     1.330972
      py      :     1.461218
      dz2     :     0.009353  d :     0.077367
      dxz     :     0.022791
      dyz     :     0.005628
      dx2y2   :     0.016803
      dxy     :     0.022791
      f0      :     0.001160  f :     0.007727
      f+1     :     0.000724
      f-1     :     0.000570
      f+2     :     0.001632
      f-2     :     0.000634
      f+3     :     0.000784
      f-3     :     0.002223


                     *******************************
                     * LOEWDIN POPULATION ANALYSIS *
                     *******************************

----------------------
LOEWDIN ATOMIC CHARGES
----------------------
   0 C :   -0.166171
   1 O :    0.166171

-------------------------------
LOEWDIN REDUCED ORBITAL CHARGES
-------------------------------
  0 C s       :     3.216117  s :     3.216117
      pz      :     0.487808  p :     2.212557
      px      :     1.236941
      py      :     0.487808
      dz2     :     0.056152  d :     0.482755
      dxz     :     0.130298
      dyz     :     0.002450
      dx2y2   :     0.163558
      dxy     :     0.130298
      f0      :     0.029429  f :     0.254742
      f+1     :     0.036681
      f-1     :     0.005072
      f+2     :     0.048914
      f-2     :     0.000721
      f+3     :     0.060654
      f-3     :     0.073271
  1 O s       :     3.374690  s :     3.374690
      pz      :     1.258688  p :     4.157212
      px      :     1.639836
      py      :     1.258688
      dz2     :     0.041153  d :     0.234153
      dxz     :     0.037428
      dyz     :     0.005315
      dx2y2   :     0.112829
      dxy     :     0.037428
      f0      :     0.005651  f :     0.067773
      f+1     :     0.014252
      f-1     :     0.001315
      f+2     :     0.009119
      f-2     :     0.000689
      f+3     :     0.023293
      f-3     :     0.013455


                      *****************************
                      * MAYER POPULATION ANALYSIS *
                      *****************************

  NA   - Mulliken gross atomic population
  ZA   - Total nuclear charge
  QA   - Mulliken gross atomic charge
  VA   - Mayer's total valence
  BVA  - Mayer's bonded valence
  FA   - Mayer's free valence

  ATOM       NA         ZA         QA         VA         BVA        FA
  0 C      5.8920     6.0000     0.1080     2.4970     2.1411     0.3559
  1 O      8.1080     8.0000    -0.1080     2.6008     2.1411     0.4596

  Mayer bond orders larger than 0.100000
B(  0-C ,  1-O ) :   2.1411 


                *******************************************
                * RELAXED MP2 DENSITY POPULATION ANALYSIS *
                *******************************************

------------------------------------------------------------------------------
                           ORCA POPULATION ANALYSIS
------------------------------------------------------------------------------
Input electron density              ... carbon_monoxide_MP2_aug-cc-pVTZ_OPT.pmp2re
BaseName (.gbw .S,...)              ... carbon_monoxide_MP2_aug-cc-pVTZ_OPT

                    ********************************
                    * MULLIKEN POPULATION ANALYSIS *
                    ********************************

-----------------------
MULLIKEN ATOMIC CHARGES
-----------------------
   0 C :    0.015868
   1 O :   -0.015868
Sum of atomic charges:   -0.0000000

--------------------------------
MULLIKEN REDUCED ORBITAL CHARGES
--------------------------------
  0 C s       :     3.851912  s :     3.851912
      pz      :     0.529244  p :     2.002464
      px      :     0.943977
      py      :     0.529244
      dz2     :     0.008602  d :     0.111974
      dxz     :     0.040012
      dyz     :     0.002459
      dx2y2   :     0.020887
      dxy     :     0.040012
      f0      :     0.002290  f :     0.017782
      f+1     :     0.002130
      f-1     :     0.000545
      f+2     :     0.003686
      f-2     :     0.000454
      f+3     :     0.003247
      f-3     :     0.005430
  1 O s       :     3.792185  s :     3.792185
      pz      :     1.407839  p :     4.143625
      px      :     1.327948
      py      :     1.407839
      dz2     :     0.008815  d :     0.072657
      dxz     :     0.021513
      dyz     :     0.005628
      dx2y2   :     0.015188
      dxy     :     0.021513
      f0      :     0.001145  f :     0.007401
      f+1     :     0.000633
      f-1     :     0.000568
      f+2     :     0.001606
      f-2     :     0.000634
      f+3     :     0.000632
      f-3     :     0.002184


                     *******************************
                     * LOEWDIN POPULATION ANALYSIS *
                     *******************************

----------------------
LOEWDIN ATOMIC CHARGES
----------------------
   0 C :   -0.189455
   1 O :    0.189455

-------------------------------
LOEWDIN REDUCED ORBITAL CHARGES
-------------------------------
  0 C s       :     3.231828  s :     3.231828
      pz      :     0.531172  p :     2.265234
      px      :     1.202890
      py      :     0.531172
      dz2     :     0.057010  d :     0.450287
      dxz     :     0.112347
      dyz     :     0.002450
      dx2y2   :     0.166132
      dxy     :     0.112347
      f0      :     0.027108  f :     0.242107
      f+1     :     0.036584
      f-1     :     0.004685
      f+2     :     0.045046
      f-2     :     0.000721
      f+3     :     0.060493
      f-3     :     0.067469
  1 O s       :     3.390058  s :     3.390058
      pz      :     1.232900  p :     4.109010
      px      :     1.643210
      py      :     1.232900
      dz2     :     0.040402  d :     0.239314
      dxz     :     0.041511
      dyz     :     0.005315
      dx2y2   :     0.110576
      dxy     :     0.041511
      f0      :     0.006581  f :     0.072162
      f+1     :     0.014037
      f-1     :     0.001470
      f+2     :     0.010669
      f-2     :     0.000689
      f+3     :     0.022935
      f-3     :     0.015780


                      *****************************
                      * MAYER POPULATION ANALYSIS *
                      *****************************

  NA   - Mulliken gross atomic population
  ZA   - Total nuclear charge
  QA   - Mulliken gross atomic charge
  VA   - Mayer's total valence
  BVA  - Mayer's bonded valence
  FA   - Mayer's free valence

  ATOM       NA         ZA         QA         VA         BVA        FA
  0 C      5.9841     6.0000     0.0159     2.5505     2.2091     0.3414
  1 O      8.0159     8.0000    -0.0159     2.6549     2.2091     0.4458

  Mayer bond orders larger than 0.100000
B(  0-C ,  1-O ) :   2.2091 


----------------------------------
MP2 DERIVATIVE INTEGRAL GENERATION
----------------------------------


Input Wavefunction Amplitudes       ... carbon_monoxide_MP2_aug-cc-pVTZ_OPT.mp2tsaa.tmp
Input Correlated Electron Density   ... carbon_monoxide_MP2_aug-cc-pVTZ_OPT.pmp2re
Input Energy Weighted Density       ... carbon_monoxide_MP2_aug-cc-pVTZ_OPT.wmp2.tmp
Input SCF Electron Density          ... carbon_monoxide_MP2_aug-cc-pVTZ_OPT.scfp

One-Electron Terms    ...
                        ... One-Electron Terms done
Prescreening matrices              ... done

Batch handling in the gradient evaluation:
Memory available                      ...  256.0 MB
Memory per occupied orbital in Q2     ...    0.3 MB
Memory per occupied orbital in Q3     ...    0.0 MB
Total memory requirement per |i>      ...    0.4 MB
Max. Number of orbitals possible      ...    716
Number of orbitals treated per batch  ...      5
Number of batches to be done          ...      1
Batch   0: i=    2 ...     6

---------------------------------------
MP2 TOTAL ENERGY:     -113.142071501 Eh
---------------------------------------

-----------------------------------
NORM OF THE MP2 GRADIENT:  0.040821
-----------------------------------

-------------------------   --------------------
FINAL SINGLE POINT ENERGY      -113.142071501021
-------------------------   --------------------

------------------------------------------------------------------------------
                         ORCA GEOMETRY RELAXATION STEP
------------------------------------------------------------------------------

Reading the OPT-File                    .... done
Getting information on internals        .... done
Copying old internal coords+grads       .... done
Making the new internal coordinates     .... (new redundants).... done
Validating the new internal coordinates .... (new redundants).... done
Calculating the B-matrix                .... done
Calculating the G,G- and P matrices     .... done
Transforming gradient to internals      .... done
Projecting the internal gradient        .... done
Number of atoms                         ....   2
Number of internal coordinates          ....   1
Current Energy                          ....  -113.142071501 Eh
Current gradient norm                   ....     0.040821474 Eh/bohr
Maximum allowed component of the step   ....  0.300
Current trust radius                    ....  0.300
Evaluating the initial hessian          ....  (Almloef) done
Projecting the Hessian                  .... done
Forming the augmented Hessian           .... done
Diagonalizing the augmented Hessian     .... done
Last element of RFO vector              ....  0.999808516
Lowest eigenvalues of augmented Hessian:
 -0.000564960
Length of the computed step             ....  0.019572398
The final length of the internal step   ....  0.019572398
Converting the step to cartesian space:
 Initial RMS(Int)=    0.0195723983
Transforming coordinates:
 Iter   0:  RMS(Cart)=    0.0056500647 RMS(Int)=    0.0195723983
 Iter   1:  RMS(Cart)=    0.0000000000 RMS(Int)=    0.0000000000
done
Storing new coordinates                 .... done

                                .--------------------.
          ----------------------|Geometry convergence|-------------------------
          Item                value                   Tolerance       Converged
          ---------------------------------------------------------------------
          RMS gradient        0.0288651411            0.0001000000      NO
          MAX gradient        0.0288651411            0.0003000000      NO
          RMS step            0.0195723983            0.0020000000      NO
          MAX step            0.0195723983            0.0040000000      NO
          ........................................................
          Max(Bonds)      0.0104      Max(Angles)    0.00
          Max(Dihed)        0.00      Max(Improp)    0.00
          ---------------------------------------------------------------------

The optimization has not yet converged - more geometry cycles are needed


    ---------------------------------------------------------------------------
                         Redundant Internal Coordinates
                            (Angstroem and degrees)

        Definition                    Value    dE/dq     Step     New-Value
    ----------------------------------------------------------------------------
     1. B(O   1,C   0)                1.1263 -0.028865  0.0104    1.1367   
    ----------------------------------------------------------------------------

         *************************************************************
         *                GEOMETRY OPTIMIZATION CYCLE   2            *
         *************************************************************
---------------------------------
CARTESIAN COORDINATES (ANGSTROEM)
---------------------------------
  C    -27.881668   12.166670    0.000000
  O    -26.744992   12.166670    0.000000

----------------------------
CARTESIAN COORDINATES (A.U.)
----------------------------
  NO LB      ZA    FRAG     MASS         X           Y           Z
   0 C     6.0000    0    12.011  -52.688716   22.991674    0.000000
   1 O     8.0000    0    15.999  -50.540711   22.991674    0.000000

--------------------------------
INTERNAL COORDINATES (ANGSTROEM)
--------------------------------
 C      0   0   0     0.000000000000     0.00000000     0.00000000
 O      1   0   0     1.136675287528     0.00000000     0.00000000

---------------------------
INTERNAL COORDINATES (A.U.)
---------------------------
 C      0   0   0     0.000000000000     0.00000000     0.00000000
 O      1   0   0     2.148004996625     0.00000000     0.00000000



           ************************************************************
           *        Program running with 4 parallel MPI-processes     *
           *              working on a common directory               *
           ************************************************************


           ************************************************************
           *        Program running with 4 parallel MPI-processes     *
           *              working on a common directory               *
           ************************************************************

Diagonalization of the overlap matrix:
Smallest eigenvalue                        ... 4.793e-04
Time for diagonalization                   ...    0.001 sec
Threshold for overlap eigenvalues          ... 1.000e-08
Number of eigenvalues below threshold      ... 0
Time for construction of square roots      ...    0.001 sec
Total time needed                          ...    0.002 sec

--------------
SCF ITERATIONS
--------------
ITER       Energy         Delta-E        Max-DP      RMS-DP      [F,P]     Damp
               ***  Starting incremental Fock matrix formation  ***
                      *** Initiating the SOSCF procedure ***
                      *** Re-Reading the Fockian *** 
                      *** Removing any level shift *** 
ITER      Energy       Delta-E        Grad      Rot      Max-DP    RMS-DP
  0   -112.78016439 -112.7801643875  0.002758  0.002758  0.003780  0.000139
               *** Restarting incremental Fock matrix formation ***
  1   -112.78025382  -0.0000894321  0.000824  0.000562  0.001247  0.000035
  2   -112.78026084  -0.0000070166  0.000404  0.000298  0.000945  0.000021
  3   -112.78026215  -0.0000013137  0.000107  0.000069  0.000209  0.000005
  4   -112.78026231  -0.0000001558  0.000020  0.000014  0.000018  0.000001
  5   -112.78026231  -0.0000000041  0.000006  0.000007  0.000010  0.000000
                 **** Energy Check signals convergence ****
              ***Rediagonalizing the Fockian in SOSCF/NRSCF***

               *****************************************************
               *                     SUCCESS                       *
               *           SCF CONVERGED AFTER   6 CYCLES          *
               *****************************************************

Total Energy       :         -112.78026231 Eh           -3068.90696 eV
  Last Energy change         ...   -5.3140e-10  Tolerance :   1.0000e-08
  Last MAX-Density change    ...    1.1675e-06  Tolerance :   1.0000e-07
             **** THE GBW FILE WAS UPDATED (carbon_monoxide_MP2_aug-cc-pVTZ_OPT.gbw) ****
             **** DENSITY FILE WAS UPDATED (carbon_monoxide_MP2_aug-cc-pVTZ_OPT.scfp) ****
             **** ENERGY FILE WAS UPDATED (carbon_monoxide_MP2_aug-cc-pVTZ_OPT.en.tmp) ****
             **** THE GBW FILE WAS UPDATED (carbon_monoxide_MP2_aug-cc-pVTZ_OPT.gbw) ****
             **** DENSITY FILE WAS UPDATED (carbon_monoxide_MP2_aug-cc-pVTZ_OPT.scfp) ****
Total SCF time: 0 days 0 hours 0 min 1 sec 


           ************************************************************
           *        Program running with 4 parallel MPI-processes     *
           *              working on a common directory               *
           ************************************************************

------------------------------------------------------------------------------
                                ORCA  MP2 
------------------------------------------------------------------------------

Freezing NCore=4 chemical core electrons
MP2 will be done in the AO integral direct mode
The Q1-step will be done using symmetric double matrices
Dimension of the basis                    ...   92
Memory devoted for MP2                    ...  256 MB   
Memory needed for all in one shot         ...    7 MB
Number of MOs that can be treated together...   84      
MP2 density construction                  ... relaxed
The MP2 gradient is requested => amplitudes will be stored on disk
Total number of MOs              ...    5
Number of MOs treated per batch  ...    2 
Number of batches necessary      ...    1 
OPERATORS   0/  0 PASS   0
-----------------------------------------------
 MP2 CORRELATION ENERGY   :     -0.362137998 Eh
-----------------------------------------------


---------------------
MP2 DENSITY FORMATION
---------------------

Completing the external part of the density      ... done
Storing the unrelaxed density                    ... done

Calculating G(D)                                 ... done
Completing the Lagrangian                        ... done
Solving the Z-vector equations                   ... 

------------------------------------------------------------------------------
                           ORCA CP-SCF CALCULATION
------------------------------------------------------------------------------

Input orbitals are from        ... carbon_monoxide_MP2_aug-cc-pVTZ_OPT.gbw
Input Perturbation             ... carbon_monoxide_MP2_aug-cc-pVTZ_OPT.pin.tmp
Wavefunction output            ... carbon_monoxide_MP2_aug-cc-pVTZ_OPT.pout.tmp
Perturbation mode              ... Real perturbation (singlet)
Solver                         ... POPLE
Max. number of iterations      ... 128
Convergence tolerance          ... 1.000e-08
Integral handling              ... Direct
Number of perturbations        ... 1
Number of operators            ... 1
Orbital ranges used for CP-SCF:
 Operator 0:  Orbitals   0...  6  to   7... 91
Variables per vector in CP-SCF ... 595
Number of vectors sought       ... 1
     CP-SCF ITERATION   0: 
     CP-SCF ITERATION   1:      0.001101667001
     CP-SCF ITERATION   2:      0.000051266314
     CP-SCF ITERATION   3:      0.000002652324
     CP-SCF ITERATION   4:      0.000000078517
     CP-SCF ITERATION   5:      0.000000001315
                                                 ... done
Finalizing the relaxed density                   ... done
Transforming P to the AO basis                   ... done
Storing the relaxed density                      ... done

------------------------------------
ENERGY WEIGHTED DENSITY FINALIZATION
------------------------------------

Gathering the parts of the W-matrix              ...                                                      done
Forming the Z-density                            ... done
Transforming Z to the AO basis                   ... done
Calculating G(Z)                                 ... done
Finalizing the W-matrix                          ...                                                      done
Transforming W to the AO basis and storing       ... done

----------------------------------
MP2 DERIVATIVE INTEGRAL GENERATION
----------------------------------


Input Wavefunction Amplitudes       ... carbon_monoxide_MP2_aug-cc-pVTZ_OPT.mp2tsaa.tmp
Input Correlated Electron Density   ... carbon_monoxide_MP2_aug-cc-pVTZ_OPT.pmp2re
Input Energy Weighted Density       ... carbon_monoxide_MP2_aug-cc-pVTZ_OPT.wmp2.tmp
Input SCF Electron Density          ... carbon_monoxide_MP2_aug-cc-pVTZ_OPT.scfp

One-Electron Terms    ...
                        ... One-Electron Terms done
Prescreening matrices              ... done

Batch handling in the gradient evaluation:
Memory available                      ...  256.0 MB
Memory per occupied orbital in Q2     ...    0.3 MB
Memory per occupied orbital in Q3     ...    0.0 MB
Total memory requirement per |i>      ...    0.4 MB
Max. Number of orbitals possible      ...    716
Number of orbitals treated per batch  ...      5
Number of batches to be done          ...      1
Batch   0: i=    2 ...     6

---------------------------------------
MP2 TOTAL ENERGY:     -113.142400308 Eh
---------------------------------------

-----------------------------------
NORM OF THE MP2 GRADIENT:  0.007099
-----------------------------------

-------------------------   --------------------
FINAL SINGLE POINT ENERGY      -113.142400308405
-------------------------   --------------------

------------------------------------------------------------------------------
                         ORCA GEOMETRY RELAXATION STEP
------------------------------------------------------------------------------

Reading the OPT-File                    .... done
Getting information on internals        .... done
Copying old internal coords+grads       .... done
Making the new internal coordinates     .... (new redundants).... done
Validating the new internal coordinates .... (new redundants).... done
Calculating the B-matrix                .... done
Calculating the G,G- and P matrices     .... done
Transforming gradient to internals      .... done
Projecting the internal gradient        .... done
Number of atoms                         ....   2
Number of internal coordinates          ....   1
Current Energy                          ....  -113.142400308 Eh
Current gradient norm                   ....     0.007098758 Eh/bohr
Maximum allowed component of the step   ....  0.300
Current trust radius                    ....  0.300
Updating the Hessian (BFGS)             .... done
Forming the augmented Hessian           .... done
Diagonalizing the augmented Hessian     .... done
Last element of RFO vector              ....  0.999991513
Lowest eigenvalues of augmented Hessian:
 -0.000020681
Length of the computed step             ....  0.004119993
The final length of the internal step   ....  0.004119993
Converting the step to cartesian space:
 Initial RMS(Int)=    0.0041199932
Transforming coordinates:
 Iter   0:  RMS(Cart)=    0.0011893396 RMS(Int)=    0.0041199932
 Iter   1:  RMS(Cart)=    0.0000000000 RMS(Int)=    0.0000000000
done
Storing new coordinates                 .... done

                                .--------------------.
          ----------------------|Geometry convergence|-------------------------
          Item                value                   Tolerance       Converged
          ---------------------------------------------------------------------
          Energy change      -0.0003288074            0.0000050000      NO
          RMS gradient        0.0050195800            0.0001000000      NO
          MAX gradient        0.0050195800            0.0003000000      NO
          RMS step            0.0041199932            0.0020000000      NO
          MAX step            0.0041199932            0.0040000000      NO
          ........................................................
          Max(Bonds)      0.0022      Max(Angles)    0.00
          Max(Dihed)        0.00      Max(Improp)    0.00
          ---------------------------------------------------------------------

The optimization has not yet converged - more geometry cycles are needed


    ---------------------------------------------------------------------------
                         Redundant Internal Coordinates
                            (Angstroem and degrees)

        Definition                    Value    dE/dq     Step     New-Value
    ----------------------------------------------------------------------------
     1. B(O   1,C   0)                1.1367 -0.005020  0.0022    1.1389   
    ----------------------------------------------------------------------------

         *************************************************************
         *                GEOMETRY OPTIMIZATION CYCLE   3            *
         *************************************************************
---------------------------------
CARTESIAN COORDINATES (ANGSTROEM)
---------------------------------
  C    -27.882758   12.166670    0.000000
  O    -26.743902   12.166670    0.000000

----------------------------
CARTESIAN COORDINATES (A.U.)
----------------------------
  NO LB      ZA    FRAG     MASS         X           Y           Z
   0 C     6.0000    0    12.011  -52.690776   22.991674    0.000000
   1 O     8.0000    0    15.999  -50.538651   22.991674    0.000000

--------------------------------
INTERNAL COORDINATES (ANGSTROEM)
--------------------------------
 C      0   0   0     0.000000000000     0.00000000     0.00000000
 O      1   0   0     1.138855494049     0.00000000     0.00000000

---------------------------
INTERNAL COORDINATES (A.U.)
---------------------------
 C      0   0   0     0.000000000000     0.00000000     0.00000000
 O      1   0   0     2.152124989865     0.00000000     0.00000000



           ************************************************************
           *        Program running with 4 parallel MPI-processes     *
           *              working on a common directory               *
           ************************************************************


           ************************************************************
           *        Program running with 4 parallel MPI-processes     *
           *              working on a common directory               *
           ************************************************************

Diagonalization of the overlap matrix:
Smallest eigenvalue                        ... 4.807e-04
Time for diagonalization                   ...    0.001 sec
Threshold for overlap eigenvalues          ... 1.000e-08
Number of eigenvalues below threshold      ... 0
Time for construction of square roots      ...    0.001 sec
Total time needed                          ...    0.002 sec

--------------
SCF ITERATIONS
--------------
ITER       Energy         Delta-E        Max-DP      RMS-DP      [F,P]     Damp
               ***  Starting incremental Fock matrix formation  ***
                      *** Initiating the SOSCF procedure ***
                      *** Re-Reading the Fockian *** 
                      *** Removing any level shift *** 
ITER      Energy       Delta-E        Grad      Rot      Max-DP    RMS-DP
  0   -112.77990188 -112.7799018842  0.000567  0.000567  0.000784  0.000029
               *** Restarting incremental Fock matrix formation ***
  1   -112.77990576  -0.0000038765  0.000171  0.000123  0.000262  0.000007
  2   -112.77990607  -0.0000003083  0.000086  0.000062  0.000199  0.000004
  3   -112.77990613  -0.0000000588  0.000022  0.000015  0.000044  0.000001
  4   -112.77990613  -0.0000000068  0.000004  0.000003  0.000004  0.000000
                 **** Energy Check signals convergence ****
              ***Rediagonalizing the Fockian in SOSCF/NRSCF***

               *****************************************************
               *                     SUCCESS                       *
               *           SCF CONVERGED AFTER   5 CYCLES          *
               *****************************************************

Total Energy       :         -112.77990613 Eh           -3068.89727 eV
  Last Energy change         ...   -1.7900e-10  Tolerance :   1.0000e-08
  Last MAX-Density change    ...    2.2062e-06  Tolerance :   1.0000e-07
             **** THE GBW FILE WAS UPDATED (carbon_monoxide_MP2_aug-cc-pVTZ_OPT.gbw) ****
             **** DENSITY FILE WAS UPDATED (carbon_monoxide_MP2_aug-cc-pVTZ_OPT.scfp) ****
             **** ENERGY FILE WAS UPDATED (carbon_monoxide_MP2_aug-cc-pVTZ_OPT.en.tmp) ****
             **** THE GBW FILE WAS UPDATED (carbon_monoxide_MP2_aug-cc-pVTZ_OPT.gbw) ****
             **** DENSITY FILE WAS UPDATED (carbon_monoxide_MP2_aug-cc-pVTZ_OPT.scfp) ****
Total SCF time: 0 days 0 hours 0 min 1 sec 


           ************************************************************
           *        Program running with 4 parallel MPI-processes     *
           *              working on a common directory               *
           ************************************************************

------------------------------------------------------------------------------
                                ORCA  MP2 
------------------------------------------------------------------------------

Freezing NCore=4 chemical core electrons
MP2 will be done in the AO integral direct mode
The Q1-step will be done using symmetric double matrices
Dimension of the basis                    ...   92
Memory devoted for MP2                    ...  256 MB   
Memory needed for all in one shot         ...    7 MB
Number of MOs that can be treated together...   84      
MP2 density construction                  ... relaxed
The MP2 gradient is requested => amplitudes will be stored on disk
Total number of MOs              ...    5
Number of MOs treated per batch  ...    2 
Number of batches necessary      ...    1 
OPERATORS   0/  0 PASS   0
-----------------------------------------------
 MP2 CORRELATION ENERGY   :     -0.362505008 Eh
-----------------------------------------------


---------------------
MP2 DENSITY FORMATION
---------------------

Completing the external part of the density      ... done
Storing the unrelaxed density                    ... done

Calculating G(D)                                 ... done
Completing the Lagrangian                        ... done
Solving the Z-vector equations                   ... 

------------------------------------------------------------------------------
                           ORCA CP-SCF CALCULATION
------------------------------------------------------------------------------

Input orbitals are from        ... carbon_monoxide_MP2_aug-cc-pVTZ_OPT.gbw
Input Perturbation             ... carbon_monoxide_MP2_aug-cc-pVTZ_OPT.pin.tmp
Wavefunction output            ... carbon_monoxide_MP2_aug-cc-pVTZ_OPT.pout.tmp
Perturbation mode              ... Real perturbation (singlet)
Solver                         ... POPLE
Max. number of iterations      ... 128
Convergence tolerance          ... 1.000e-08
Integral handling              ... Direct
Number of perturbations        ... 1
Number of operators            ... 1
Orbital ranges used for CP-SCF:
 Operator 0:  Orbitals   0...  6  to   7... 91
Variables per vector in CP-SCF ... 595
Number of vectors sought       ... 1
     CP-SCF ITERATION   0: 
     CP-SCF ITERATION   1:      0.001125010931
     CP-SCF ITERATION   2:      0.000052484124
     CP-SCF ITERATION   3:      0.000002738421
     CP-SCF ITERATION   4:      0.000000080957
     CP-SCF ITERATION   5:      0.000000001349
                                                 ... done
Finalizing the relaxed density                   ... done
Transforming P to the AO basis                   ... done
Storing the relaxed density                      ... done

------------------------------------
ENERGY WEIGHTED DENSITY FINALIZATION
------------------------------------

Gathering the parts of the W-matrix              ...                                                      done
Forming the Z-density                            ... done
Transforming Z to the AO basis                   ... done
Calculating G(Z)                                 ... done
Finalizing the W-matrix                          ...                                                      done
Transforming W to the AO basis and storing       ... done

----------------------------------
MP2 DERIVATIVE INTEGRAL GENERATION
----------------------------------


Input Wavefunction Amplitudes       ... carbon_monoxide_MP2_aug-cc-pVTZ_OPT.mp2tsaa.tmp
Input Correlated Electron Density   ... carbon_monoxide_MP2_aug-cc-pVTZ_OPT.pmp2re
Input Energy Weighted Density       ... carbon_monoxide_MP2_aug-cc-pVTZ_OPT.wmp2.tmp
Input SCF Electron Density          ... carbon_monoxide_MP2_aug-cc-pVTZ_OPT.scfp

One-Electron Terms    ...
                        ... One-Electron Terms done
Prescreening matrices              ... done

Batch handling in the gradient evaluation:
Memory available                      ...  256.0 MB
Memory per occupied orbital in Q2     ...    0.3 MB
Memory per occupied orbital in Q3     ...    0.0 MB
Total memory requirement per |i>      ...    0.4 MB
Max. Number of orbitals possible      ...    716
Number of orbitals treated per batch  ...      5
Number of batches to be done          ...      1
Batch   0: i=    2 ...     6

---------------------------------------
MP2 TOTAL ENERGY:     -113.142411143 Eh
---------------------------------------

-----------------------------------
NORM OF THE MP2 GRADIENT:  0.000312
-----------------------------------

-------------------------   --------------------
FINAL SINGLE POINT ENERGY      -113.142411143030
-------------------------   --------------------

------------------------------------------------------------------------------
                         ORCA GEOMETRY RELAXATION STEP
------------------------------------------------------------------------------

Reading the OPT-File                    .... done
Getting information on internals        .... done
Copying old internal coords+grads       .... done
Making the new internal coordinates     .... (new redundants).... done
Validating the new internal coordinates .... (new redundants).... done
Calculating the B-matrix                .... done
Calculating the G,G- and P matrices     .... done
Transforming gradient to internals      .... done
Projecting the internal gradient        .... done
Number of atoms                         ....   2
Number of internal coordinates          ....   1
Current Energy                          ....  -113.142411143 Eh
Current gradient norm                   ....     0.000312360 Eh/bohr
Maximum allowed component of the step   ....  0.300
Current trust radius                    ....  0.300
Updating the Hessian (BFGS)             .... done
Forming the augmented Hessian           .... done
Diagonalizing the augmented Hessian     .... done
Last element of RFO vector              ....  0.999999982
Lowest eigenvalues of augmented Hessian:
 -0.000000042
Length of the computed step             ....  0.000189633
The final length of the internal step   ....  0.000189633
Converting the step to cartesian space:
 Initial RMS(Int)=    0.0001896325
Transforming coordinates:
 Iter   0:  RMS(Cart)=    0.0000547422 RMS(Int)=    0.0001896325
 Iter   1:  RMS(Cart)=    0.0000000000 RMS(Int)=    0.0000000000
done
Storing new coordinates                 .... done

                                .--------------------.
          ----------------------|Geometry convergence|-------------------------
          Item                value                   Tolerance       Converged
          ---------------------------------------------------------------------
          Energy change      -0.0000108346            0.0000050000      NO
          RMS gradient        0.0002208720            0.0001000000      NO
          MAX gradient        0.0002208720            0.0003000000      YES
          RMS step            0.0001896325            0.0020000000      YES
          MAX step            0.0001896325            0.0040000000      YES
          ........................................................
          Max(Bonds)      0.0001      Max(Angles)    0.00
          Max(Dihed)        0.00      Max(Improp)    0.00
          ---------------------------------------------------------------------

       The step convergence is overachieved with 
       reasonable convergence on the gradient
       Convergence will therefore be signaled now


                    ***********************HURRAY********************
                    ***        THE OPTIMIZATION HAS CONVERGED     ***
                    *************************************************


    ---------------------------------------------------------------------------
                         Redundant Internal Coordinates

                          --- Optimized Parameters ---  
                            (Angstroem and degrees)

        Definition                    OldVal   dE/dq     Step     FinalVal
    ----------------------------------------------------------------------------
     1. B(O   1,C   0)                1.1389 -0.000221  0.0001    1.1390   
    ----------------------------------------------------------------------------
                 *******************************************************
                 *** FINAL ENERGY EVALUATION AT THE STATIONARY POINT ***
                 ***               (AFTER    3 CYCLES)               ***
                 *******************************************************
---------------------------------
CARTESIAN COORDINATES (ANGSTROEM)
---------------------------------
  C    -27.882808   12.166670    0.000000
  O    -26.743852   12.166670    0.000000

----------------------------
CARTESIAN COORDINATES (A.U.)
----------------------------
  NO LB      ZA    FRAG     MASS         X           Y           Z
   0 C     6.0000    0    12.011  -52.690871   22.991674    0.000000
   1 O     8.0000    0    15.999  -50.538556   22.991674    0.000000

--------------------------------
INTERNAL COORDINATES (ANGSTROEM)
--------------------------------
 C      0   0   0     0.000000000000     0.00000000     0.00000000
 O      1   0   0     1.138955843253     0.00000000     0.00000000

---------------------------
INTERNAL COORDINATES (A.U.)
---------------------------
 C      0   0   0     0.000000000000     0.00000000     0.00000000
 O      1   0   0     2.152314622378     0.00000000     0.00000000

---------------------
BASIS SET INFORMATION
---------------------
There are 2 groups of distinct atoms

 Group   1 Type C   : 19s6p3d2f contracted to 5s4p3d2f pattern {88111/3111/111/11}
 Group   2 Type O   : 19s6p3d2f contracted to 5s4p3d2f pattern {88111/3111/111/11}

Atom   0C    basis set group =>   1
Atom   1O    basis set group =>   2


           ************************************************************
           *        Program running with 4 parallel MPI-processes     *
           *              working on a common directory               *
           ************************************************************
------------------------------------------------------------------------------
                           ORCA GTO INTEGRAL CALCULATION
------------------------------------------------------------------------------

                         BASIS SET STATISTICS AND STARTUP INFO

 # of primitive gaussian shells          ...   60
 # of primitive gaussian functions       ...  132
 # of contracted shells                  ...   28
 # of contracted basis functions         ...   92
 Highest angular momentum                ...    3
 Maximum contraction depth               ...    8
 Integral package used                   ... LIBINT
 Integral threshhold            Thresh   ...  2.500e-11
 Primitive cut-off              TCut     ...  2.500e-12


------------------------------ INTEGRAL EVALUATION ----------------------------


 * One electron integrals 
 Pre-screening matrix                    ... done
 Shell pair data                         ... done (   0.000 sec)



           ************************************************************
           *        Program running with 4 parallel MPI-processes     *
           *              working on a common directory               *
           ************************************************************
-------------------------------------------------------------------------------
                                 ORCA SCF
-------------------------------------------------------------------------------

------------
SCF SETTINGS
------------
Hamiltonian:
 Ab initio Hamiltonian  Method          .... Hartree-Fock(GTOs)


General Settings:
 Integral files         IntName         .... carbon_monoxide_MP2_aug-cc-pVTZ_OPT
 Hartree-Fock type      HFTyp           .... RHF
 Total Charge           Charge          ....    0
 Multiplicity           Mult            ....    1
 Number of Electrons    NEL             ....   14
 Basis Dimension        Dim             ....   92
 Nuclear Repulsion      ENuc            ....     22.3015722241 Eh

Convergence Acceleration:
 DIIS                   CNVDIIS         .... on
   Start iteration      DIISMaxIt       ....    12
   Startup error        DIISStart       ....  0.200000
   # of expansion vecs  DIISMaxEq       ....     5
   Bias factor          DIISBfac        ....   1.050
   Max. coefficient     DIISMaxC        ....  10.000
 Newton-Raphson         CNVNR           .... off
 SOSCF                  CNVSOSCF        .... on
   Start iteration      SOSCFMaxIt      ....   150
   Startup grad/error   SOSCFStart      ....  0.003300
 Level Shifting         CNVShift        .... on
   Level shift para.    LevelShift      ....    0.2500
   Turn off err/grad.   ShiftErr        ....    0.0010
 Zerner damping         CNVZerner       .... off
 Static damping         CNVDamp         .... on
   Fraction old density DampFac         ....    0.7000
   Max. Damping (<1)    DampMax         ....    0.9800
   Min. Damping (>=0)   DampMin         ....    0.0000
   Turn off err/grad.   DampErr         ....    0.1000
 Fernandez-Rico         CNVRico         .... off

SCF Procedure:
 Maximum # iterations   MaxIter         ....   125
 SCF integral mode      SCFMode         .... Direct
   Integral package                     .... LIBINT
 Reset frequency        DirectResetFreq ....    20
 Integral Threshold     Thresh          ....  2.500e-11 Eh
 Primitive CutOff       TCut            ....  2.500e-12 Eh

Convergence Tolerance:
 Convergence Check Mode ConvCheckMode   .... Total+1el-Energy
 Convergence forced     ConvForced      .... 1
 Energy Change          TolE            ....  1.000e-08 Eh
 1-El. energy change                    ....  1.000e-05 Eh
 Orbital Gradient       TolG            ....  1.000e-05
 Orbital Rotation angle TolX            ....  1.000e-05
 DIIS Error             TolErr          ....  5.000e-07


Diagonalization of the overlap matrix:
Smallest eigenvalue                        ... 4.808e-04
Time for diagonalization                   ...    0.001 sec
Threshold for overlap eigenvalues          ... 1.000e-08
Number of eigenvalues below threshold      ... 0
Time for construction of square roots      ...    0.001 sec
Total time needed                          ...    0.002 sec

---------------------
INITIAL GUESS: MOREAD
---------------------
Guess MOs are being read from file: carbon_monoxide_MP2_aug-cc-pVTZ_OPT.gbw
Input Geometry matches current geometry (good)
Input basis set matches current basis set (good)
MOs were renormalized
MOs were reorthogonalized (Cholesky)
                      ------------------
                      INITIAL GUESS DONE (   0.0 sec)
                      ------------------
--------------
SCF ITERATIONS
--------------
ITER       Energy         Delta-E        Max-DP      RMS-DP      [F,P]     Damp
               ***  Starting incremental Fock matrix formation  ***
                      *** Initiating the SOSCF procedure ***
                      *** Re-Reading the Fockian *** 
                      *** Removing any level shift *** 
ITER      Energy       Delta-E        Grad      Rot      Max-DP    RMS-DP
  0   -112.77988924 -112.7798892404  0.000026  0.000026  0.000036  0.000001
               *** Restarting incremental Fock matrix formation ***
  1   -112.77988925  -0.0000000082  0.000008  0.000004  0.000012  0.000000
  2   -112.77988925  -0.0000000006  0.000004  0.000003  0.000009  0.000000
                 **** Energy Check signals convergence ****
              ***Rediagonalizing the Fockian in SOSCF/NRSCF***

               *****************************************************
               *                     SUCCESS                       *
               *           SCF CONVERGED AFTER   3 CYCLES          *
[...]

  ATOM       NA         ZA         QA         VA         BVA        FA
  0 C      5.8525     6.0000     0.1475     2.3221     2.3221     0.0000
  1 O      8.1475     8.0000    -0.1475     2.3221     2.3221     0.0000

  Mayer bond orders larger than 0.100000
B(  0-C ,  1-O ) :   2.3221 

-------
TIMINGS
-------

Total SCF time: 0 days 0 hours 0 min 0 sec 

Total time                  ....       0.995 sec
Sum of individual times     ....       0.841 sec  ( 84.5%)

Fock matrix formation       ....       0.835 sec  ( 83.9%)
Diagonalization             ....       0.001 sec  (  0.1%)
Density matrix formation    ....       0.000 sec  (  0.0%)
Population analysis         ....       0.001 sec  (  0.1%)
Initial guess               ....       0.002 sec  (  0.2%)
Orbital Transformation      ....       0.000 sec  (  0.0%)
Orbital Orthonormalization  ....       0.001 sec  (  0.1%)
DIIS solution               ....       0.000 sec  (  0.0%)
SOSCF solution              ....       0.002 sec  (  0.2%)


           ************************************************************
           *        Program running with 4 parallel MPI-processes     *
           *              working on a common directory               *
           ************************************************************

------------------------------------------------------------------------------
                                ORCA  MP2 
------------------------------------------------------------------------------

Freezing NCore=4 chemical core electrons
MP2 will be done in the AO integral direct mode
The Q1-step will be done using symmetric double matrices
Dimension of the basis                    ...   92
Memory devoted for MP2                    ...  256 MB   
Memory needed for all in one shot         ...    7 MB
Number of MOs that can be treated together...   84      
MP2 density construction                  ... relaxed
The MP2 gradient is requested => amplitudes will be stored on disk
Total number of MOs              ...    5
Number of MOs treated per batch  ...    2 
Number of batches necessary      ...    1 
OPERATORS   0/  0 PASS   0
-----------------------------------------------
 MP2 CORRELATION ENERGY   :     -0.362521884 Eh
-----------------------------------------------


---------------------
MP2 DENSITY FORMATION
---------------------

Completing the external part of the density      ... done
Storing the unrelaxed density                    ... done

Calculating G(D)                                 ... done
Completing the Lagrangian                        ... done
Solving the Z-vector equations                   ... 

------------------------------------------------------------------------------
                           ORCA CP-SCF CALCULATION
------------------------------------------------------------------------------

Input orbitals are from        ... carbon_monoxide_MP2_aug-cc-pVTZ_OPT.gbw
Input Perturbation             ... carbon_monoxide_MP2_aug-cc-pVTZ_OPT.pin.tmp
Wavefunction output            ... carbon_monoxide_MP2_aug-cc-pVTZ_OPT.pout.tmp
Perturbation mode              ... Real perturbation (singlet)
Solver                         ... POPLE
Max. number of iterations      ... 128
Convergence tolerance          ... 1.000e-08
Integral handling              ... Direct
Number of perturbations        ... 1
Number of operators            ... 1
Orbital ranges used for CP-SCF:
 Operator 0:  Orbitals   0...  6  to   7... 91
Variables per vector in CP-SCF ... 595
Number of vectors sought       ... 1
     CP-SCF ITERATION   0: 
     CP-SCF ITERATION   1:      0.001126091126
     CP-SCF ITERATION   2:      0.000052540705
     CP-SCF ITERATION   3:      0.000002742434
     CP-SCF ITERATION   4:      0.000000081071
     CP-SCF ITERATION   5:      0.000000001350
                                                 ... done
Finalizing the relaxed density                   ... done
Transforming P to the AO basis                   ... done
Storing the relaxed density                      ... done

------------------------------------
ENERGY WEIGHTED DENSITY FINALIZATION
------------------------------------

Gathering the parts of the W-matrix              ...                                                      done
Forming the Z-density                            ... done
Transforming Z to the AO basis                   ... done
Calculating G(Z)                                 ... done
Finalizing the W-matrix                          ...                                                      done
Transforming W to the AO basis and storing       ... done

                *********************************************
                * UNRELAXED MP2 DENSITY POPULATION ANALYSIS *
                *********************************************

------------------------------------------------------------------------------
                           ORCA POPULATION ANALYSIS
------------------------------------------------------------------------------
Input electron density              ... carbon_monoxide_MP2_aug-cc-pVTZ_OPT.pmp2ur
BaseName (.gbw .S,...)              ... carbon_monoxide_MP2_aug-cc-pVTZ_OPT

                    ********************************
                    * MULLIKEN POPULATION ANALYSIS *
                    ********************************

-----------------------
MULLIKEN ATOMIC CHARGES
-----------------------
   0 C :    0.118877
   1 O :   -0.118877
Sum of atomic charges:    0.0000000

--------------------------------
MULLIKEN REDUCED ORBITAL CHARGES
--------------------------------
  0 C s       :     3.816104  s :     3.816104
      pz      :     0.462169  p :     1.917071
      px      :     0.992733
      py      :     0.462169
      dz2     :     0.008534  d :     0.125320
      dxz     :     0.046818
      dyz     :     0.002453
      dx2y2   :     0.020695
      dxy     :     0.046818
      f0      :     0.003126  f :     0.022628
      f+1     :     0.002275
      f-1     :     0.000683
      f+2     :     0.005079
      f-2     :     0.000454
      f+3     :     0.003489
      f-3     :     0.007521
  1 O s       :     3.774735  s :     3.774735
      pz      :     1.464899  p :     4.259540
      px      :     1.329742
      py      :     1.464899
      dz2     :     0.009355  d :     0.076889
      dxz     :     0.022558
      dyz     :     0.005646
      dx2y2   :     0.016772
      dxy     :     0.022558
      f0      :     0.001151  f :     0.007713
      f+1     :     0.000737
      f-1     :     0.000570
      f+2     :     0.001617
      f-2     :     0.000634
      f+3     :     0.000806
      f-3     :     0.002198


                     *******************************
                     * LOEWDIN POPULATION ANALYSIS *
                     *******************************

----------------------
LOEWDIN ATOMIC CHARGES
----------------------
   0 C :   -0.157797
   1 O :    0.157797

-------------------------------
LOEWDIN REDUCED ORBITAL CHARGES
-------------------------------
  0 C s       :     3.221881  s :     3.221881
      pz      :     0.484866  p :     2.202472
      px      :     1.232741
      py      :     0.484866
      dz2     :     0.055941  d :     0.479337
      dxz     :     0.129008
      dyz     :     0.002445
      dx2y2   :     0.162935
      dxy     :     0.129008
      f0      :     0.029287  f :     0.254107
      f+1     :     0.036726
      f-1     :     0.005047
      f+2     :     0.048679
      f-2     :     0.000715
      f+3     :     0.060733
      f-3     :     0.072919
  1 O s       :     3.379510  s :     3.379510
      pz      :     1.264392  p :     4.163651
      px      :     1.634866
      py      :     1.264392
      dz2     :     0.041130  d :     0.232688
      dxz     :     0.036754
      dyz     :     0.005340
      dx2y2   :     0.112709
      dxy     :     0.036754
      f0      :     0.005524  f :     0.066354
      f+1     :     0.013974
      f-1     :     0.001295
      f+2     :     0.008907
      f-2     :     0.000687
      f+3     :     0.022832
      f-3     :     0.013136


                      *****************************
                      * MAYER POPULATION ANALYSIS *
                      *****************************

  NA   - Mulliken gross atomic population
  ZA   - Total nuclear charge
  QA   - Mulliken gross atomic charge
  VA   - Mayer's total valence
  BVA  - Mayer's bonded valence
  FA   - Mayer's free valence

  ATOM       NA         ZA         QA         VA         BVA        FA
  0 C      5.8811     6.0000     0.1189     2.4886     2.1273     0.3613
  1 O      8.1189     8.0000    -0.1189     2.5953     2.1273     0.4680

  Mayer bond orders larger than 0.100000
B(  0-C ,  1-O ) :   2.1273 


                *******************************************
                * RELAXED MP2 DENSITY POPULATION ANALYSIS *
                *******************************************

------------------------------------------------------------------------------
                           ORCA POPULATION ANALYSIS
------------------------------------------------------------------------------
Input electron density              ... carbon_monoxide_MP2_aug-cc-pVTZ_OPT.pmp2re
BaseName (.gbw .S,...)              ... carbon_monoxide_MP2_aug-cc-pVTZ_OPT

                    ********************************
                    * MULLIKEN POPULATION ANALYSIS *
                    ********************************

-----------------------
MULLIKEN ATOMIC CHARGES
-----------------------
   0 C :    0.022325
   1 O :   -0.022325
Sum of atomic charges:    0.0000000

--------------------------------
MULLIKEN REDUCED ORBITAL CHARGES
--------------------------------
  0 C s       :     3.853368  s :     3.853368
      pz      :     0.528912  p :     1.995894
      px      :     0.938070
      py      :     0.528912
      dz2     :     0.008538  d :     0.110879
      dxz     :     0.039590
      dyz     :     0.002453
      dx2y2   :     0.020708
      dxy     :     0.039590
      f0      :     0.002281  f :     0.017535
      f+1     :     0.002053
      f-1     :     0.000543
      f+2     :     0.003672
      f-2     :     0.000454
      f+3     :     0.003120
      f-3     :     0.005411
  1 O s       :     3.796921  s :     3.796921
      pz      :     1.408962  p :     4.145862
      px      :     1.327939
      py      :     1.408962
      dz2     :     0.008815  d :     0.072169
      dxz     :     0.021277
      dyz     :     0.005646
      dx2y2   :     0.015153
      dxy     :     0.021277
      f0      :     0.001135  f :     0.007373
      f+1     :     0.000643
      f-1     :     0.000567
      f+2     :     0.001589
      f-2     :     0.000634
      f+3     :     0.000649
      f-3     :     0.002157


                     *******************************
                     * LOEWDIN POPULATION ANALYSIS *
                     *******************************

----------------------
LOEWDIN ATOMIC CHARGES
----------------------
   0 C :   -0.182686
   1 O :    0.182686

-------------------------------
LOEWDIN REDUCED ORBITAL CHARGES
-------------------------------
  0 C s       :     3.237829  s :     3.237829
      pz      :     0.530423  p :     2.257692
      px      :     1.196846
      py      :     0.530423
      dz2     :     0.056830  d :     0.446106
      dxz     :     0.110615
      dyz     :     0.002445
      dx2y2   :     0.165601
      dxy     :     0.110615
      f0      :     0.026873  f :     0.241058
      f+1     :     0.036660
      f-1     :     0.004645
      f+2     :     0.044656
      f-2     :     0.000715
      f+3     :     0.060623
      f-3     :     0.066884
  1 O s       :     3.395178  s :     3.395178
      pz      :     1.236934  p :     4.113171
      px      :     1.639303
      py      :     1.236934
      dz2     :     0.040387  d :     0.238140
      dxz     :     0.040965
      dyz     :     0.005340
      dx2y2   :     0.110482
      dxy     :     0.040965
      f0      :     0.006469  f :     0.070825
      f+1     :     0.013761
      f-1     :     0.001452
      f+2     :     0.010482
      f-2     :     0.000687
      f+3     :     0.022477
      f-3     :     0.015498


                      *****************************
                      * MAYER POPULATION ANALYSIS *
                      *****************************

  NA   - Mulliken gross atomic population
  ZA   - Total nuclear charge
  QA   - Mulliken gross atomic charge
  VA   - Mayer's total valence
  BVA  - Mayer's bonded valence
  FA   - Mayer's free valence

  ATOM       NA         ZA         QA         VA         BVA        FA
  0 C      5.9777     6.0000     0.0223     2.5465     2.2009     0.3456
  1 O      8.0223     8.0000    -0.0223     2.6540     2.2009     0.4531

  Mayer bond orders larger than 0.100000
B(  0-C ,  1-O ) :   2.2009 


----------------------------------
MP2 DERIVATIVE INTEGRAL GENERATION
----------------------------------


Input Wavefunction Amplitudes       ... carbon_monoxide_MP2_aug-cc-pVTZ_OPT.mp2tsaa.tmp
Input Correlated Electron Density   ... carbon_monoxide_MP2_aug-cc-pVTZ_OPT.pmp2re
Input Energy Weighted Density       ... carbon_monoxide_MP2_aug-cc-pVTZ_OPT.wmp2.tmp
Input SCF Electron Density          ... carbon_monoxide_MP2_aug-cc-pVTZ_OPT.scfp

One-Electron Terms    ...
                        ... One-Electron Terms done
Prescreening matrices              ... done

Batch handling in the gradient evaluation:
Memory available                      ...  256.0 MB
Memory per occupied orbital in Q2     ...    0.3 MB
Memory per occupied orbital in Q3     ...    0.0 MB
Total memory requirement per |i>      ...    0.4 MB
Max. Number of orbitals possible      ...    716
Number of orbitals treated per batch  ...      5
Number of batches to be done          ...      1
Batch   0: i=    2 ...     6

---------------------------------------
MP2 TOTAL ENERGY:     -113.142411133 Eh
---------------------------------------

-----------------------------------
NORM OF THE MP2 GRADIENT:  0.000004
-----------------------------------

-------------------------   --------------------
FINAL SINGLE POINT ENERGY      -113.142411133427
-------------------------   --------------------

                                *** OPTIMIZATION RUN DONE ***

                            ***************************************
                            *     ORCA property calculations      *
                            ***************************************

                                    ---------------------
                                    Active property flags
                                    ---------------------
   (+) Dipole Moment


------------------------------------------------------------------------------
                       ORCA ELECTRIC PROPERTIES CALCULATION
------------------------------------------------------------------------------

Dipole Moment Calculation                       ... on
Quadrupole Moment Calculation                   ... off
Polarizability Calculation                      ... off
GBWName                                         ... carbon_monoxide_MP2_aug-cc-pVTZ_OPT.gbw
Electron density file                           ... carbon_monoxide_MP2_aug-cc-pVTZ_OPT.scfp
The origin for moment calculation is the CENTER OF MASS  = (-51.461493, 22.991674  0.000000)

-------------
DIPOLE MOMENT
-------------
                                X             Y             Z
Electronic contribution:     -0.13320       0.00000      -0.00000
Nuclear contribution   :      0.00722       0.00000       0.00000
                        -----------------------------------------
Total Dipole Moment    :     -0.12598       0.00000      -0.00000
                        -----------------------------------------
Magnitude (a.u.)       :      0.12598
Magnitude (Debye)      :      0.32022



--------------------
Rotational spectrum 
--------------------
 
Rotational constants in cm-1:     0.000000     1.894193     1.894193 
Rotational constants in MHz :     0.000000 56786.477942 56786.477942 

 Dipole components along the rotational axes: 
x,y,z [a.u.] :     0.125981     0.000000    -0.000000 
x,y,z [Debye]:     0.320219     0.000000    -0.000000 

 

                         *** MP2 UNRELAXED DENSITY ***

------------------------------------------------------------------------------
                       ORCA ELECTRIC PROPERTIES CALCULATION
------------------------------------------------------------------------------

Dipole Moment Calculation                       ... on
Quadrupole Moment Calculation                   ... off
Polarizability Calculation                      ... off
GBWName                                         ... carbon_monoxide_MP2_aug-cc-pVTZ_OPT.gbw
Electron density file                           ... carbon_monoxide_MP2_aug-cc-pVTZ_OPT.pmp2ur
The origin for moment calculation is the CENTER OF MASS  = (-51.461493, 22.991674  0.000000)

-------------
DIPOLE MOMENT
-------------
                                X             Y             Z
Electronic contribution:     -0.07575       0.00000      -0.00000
Nuclear contribution   :      0.00722       0.00000       0.00000
                        -----------------------------------------
Total Dipole Moment    :     -0.06853       0.00000      -0.00000
                        -----------------------------------------
Magnitude (a.u.)       :      0.06853
Magnitude (Debye)      :      0.17419



--------------------
Rotational spectrum 
--------------------
 
Rotational constants in cm-1:     0.000000     1.894193     1.894193 
Rotational constants in MHz :     0.000000 56786.477942 56786.477942 

 Dipole components along the rotational axes: 
x,y,z [a.u.] :     0.068530     0.000000    -0.000000 
x,y,z [Debye]:     0.174189     0.000000    -0.000000 

 

                           *** MP2 RELAXED DENSITY ***

------------------------------------------------------------------------------
                       ORCA ELECTRIC PROPERTIES CALCULATION
------------------------------------------------------------------------------

Dipole Moment Calculation                       ... on
Quadrupole Moment Calculation                   ... off
Polarizability Calculation                      ... off
GBWName                                         ... carbon_monoxide_MP2_aug-cc-pVTZ_OPT.gbw
Electron density file                           ... carbon_monoxide_MP2_aug-cc-pVTZ_OPT.pmp2re
The origin for moment calculation is the CENTER OF MASS  = (-51.461493, 22.991674  0.000000)

-------------
DIPOLE MOMENT
-------------
                                X             Y             Z
Electronic contribution:      0.09264       0.00000      -0.00000
Nuclear contribution   :      0.00722       0.00000       0.00000
                        -----------------------------------------
Total Dipole Moment    :      0.09986       0.00000      -0.00000
                        -----------------------------------------
Magnitude (a.u.)       :      0.09986
Magnitude (Debye)      :      0.25382



--------------------
Rotational spectrum 
--------------------
 
Rotational constants in cm-1:     0.000000     1.894193     1.894193 
Rotational constants in MHz :     0.000000 56786.477942 56786.477942 

 Dipole components along the rotational axes: 
x,y,z [a.u.] :    -0.099859     0.000000    -0.000000 
x,y,z [Debye]:    -0.253822     0.000000    -0.000000 

 

Timings for individual modules:

Sum of individual times         ...       24.748 sec (=   0.412 min)
GTO integral calculation        ...        1.364 sec (=   0.023 min)   5.5 %
SCF iterations                  ...        7.792 sec (=   0.130 min)  31.5 %
MP2 module                      ...       15.538 sec (=   0.259 min)  62.8 %
Geometry relaxation             ...        0.055 sec (=   0.001 min)   0.2 %
                             ****ORCA TERMINATED NORMALLY****
TOTAL RUN TIME: 0 days 0 hours 0 minutes 25 seconds 57 msec
