
                                 *****************
                                 * O   R   C   A *
                                 *****************

           --- An Ab Initio, DFT and Semiempirical electronic structure package ---

                  #######################################################
                  #                        -***-                        #
                  #          Department of theory and spectroscopy      #
                  #               Directorship: Frank Neese             #
                  #        Max Planck Institute fuer Kohlenforschung    #
                  #                Kaiser Wilhelm Platz 1               #
                  #                 D-45470 Muelheim/Ruhr               #
                  #                      Germany                        #
                  #                                                     #
                  #                  All rights reserved                #
                  #                        -***-                        #
                  #######################################################


                         Program Version 4.2.1 -  RELEASE  -


 With contributions from (in alphabetic order):
   Daniel Aravena         : Magnetic Suceptibility
   Michael Atanasov       : Ab Initio Ligand Field Theory (pilot matlab implementation)
   Alexander A. Auer      : GIAO ZORA, VPT2
   Ute Becker             : Parallelization
   Giovanni Bistoni       : ED, misc. LED, open-shell LED, HFLD
   Martin Brehm           : Molecular dynamics
   Dmytro Bykov           : SCF Hessian
   Vijay G. Chilkuri      : MRCI spin determinant printing, contributions to CSF-ICE
   Dipayan Datta          : RHF DLPNO-CCSD density
   Achintya Kumar Dutta   : EOM-CC, STEOM-CC
   Dmitry Ganyushin       : Spin-Orbit,Spin-Spin,Magnetic field MRCI
   Miquel Garcia          : C-PCM Hessian, Gaussian charge scheme
   Yang Guo               : DLPNO-NEVPT2, CIM, IAO-localization
   Andreas Hansen         : Spin unrestricted coupled pair/coupled cluster methods
   Benjamin Helmich-Paris : CASSCF linear response (MC-RPA)
   Lee Huntington         : MR-EOM, pCC
   Robert Izsak           : Overlap fitted RIJCOSX, COSX-SCS-MP3, EOM
   Christian Kollmar      : KDIIS, OOCD, Brueckner-CCSD(T), CCSD density
   Simone Kossmann        : Meta GGA functionals, TD-DFT gradient, OOMP2, MP2 Hessian
   Martin Krupicka        : AUTO-CI
   Lucas Lang             : DCDCAS
   Dagmar Lenk            : GEPOL surface, SMD
   Dimitrios Liakos       : Extrapolation schemes; Compound Job, initial MDCI parallelization
   Dimitrios Manganas     : Further ROCIS development; embedding schemes
   Dimitrios Pantazis     : SARC Basis sets
   Taras Petrenko         : DFT Hessian,TD-DFT gradient, ASA, ECA, R-Raman, ABS, FL, XAS/XES, NRVS
   Peter Pinski           : DLPNO-MP2, DLPNO-MP2 Gradient
   Christoph Reimann      : Effective Core Potentials
   Marius Retegan         : Local ZFS, SOC
   Christoph Riplinger    : Optimizer, TS searches, QM/MM, DLPNO-CCSD(T), (RO)-DLPNO pert. Triples
   Tobias Risthaus        : Range-separated hybrids, TD-DFT gradient, RPA, STAB
   Michael Roemelt        : Original ROCIS implementation
   Masaaki Saitow         : Open-shell DLPNO-CCSD energy and density
   Barbara Sandhoefer     : DKH picture change effects
   Avijit Sen             : IP-ROCIS
   Kantharuban Sivalingam : CASSCF convergence, NEVPT2, FIC-MRCI
   Bernardo de Souza      : ESD, SOC TD-DFT
   Georgi Stoychev        : AutoAux, RI-MP2 NMR
   Willem Van den Heuvel  : Paramagnetic NMR
   Boris Wezisla          : Elementary symmetry handling
   Frank Wennmohs         : Technical directorship


 We gratefully acknowledge several colleagues who have allowed us to
 interface, adapt or use parts of their codes:
   Stefan Grimme, W. Hujo, H. Kruse,             : VdW corrections, initial TS optimization,
                  C. Bannwarth                     DFT functionals, gCP, sTDA/sTD-DF
   Ed Valeev, F. Pavosevic, A. Kumar             : LibInt (2-el integral package), F12 methods
   Garnet Chan, S. Sharma, J. Yang, R. Olivares  : DMRG
   Ulf Ekstrom                                   : XCFun DFT Library
   Mihaly Kallay                                 : mrcc  (arbitrary order and MRCC methods)
   Andreas Klamt, Michael Diedenhofen            : otool_cosmo (COSMO solvation model)
   Jiri Pittner, Ondrej Demel                    : Mk-CCSD
   Frank Weinhold                                : gennbo (NPA and NBO analysis)
   Christopher J. Cramer and Donald G. Truhlar   : smd solvation model
   Lars Goerigk                                  : TD-DFT with DH, B97 family of functionals
   V. Asgeirsson, H. Jonsson                     : NEB implementation
   FAccTs GmbH                                   : IRC, NEB, NEB-TS, Multilevel, MM, QM/MM, CI optimization
   S Lehtola, MJT Oliveira, MAL Marques          : LibXC Library


 Your calculation uses the libint2 library for the computation of 2-el integrals
 For citations please refer to: http://libint.valeyev.net

 Your ORCA version has been built with support for libXC version: 4.2.3
 For citations please refer to: https://tddft.org/programs/libxc/

 This ORCA versions uses:
   CBLAS   interface :  Fast vector & matrix operations
   LAPACKE interface :  Fast linear algebra routines
   SCALAPACK package :  Parallel linear algebra routines




***************************************
The coordinates will be read from file: carbon_monoxide_B3LYP_cc-pVDZ_OPT.xyz
***************************************


----- Orbital basis set information -----
Your calculation utilizes the basis: cc-pVTZ 
       H, B-Ne : Obtained from the ccRepo (grant-hill.group.shef.ac.uk/ccrepo) Feb. 2017
                 T. H. Dunning, Jr., J. Chem. Phys. 90, 1007 (1989)
            He : Obtained from the ccRepo (grant-hill.group.shef.ac.uk/ccrepo) Feb. 2017
                 D. E. Woon, T. H. Dunning, Jr., J. Chem. Phys. 100, 2975 (1994)
  Li-Be, Na-Mg : Obtained from the ccRepo (grant-hill.group.shef.ac.uk/ccrepo) Feb. 2017
                 B. P. Prascher, D. E. Woon, K. A. Peterson, T. H. Dunning, Jr., A. K. Wilson, Theor. Chem. Acc. 128, 69 (2011)
         Al-Ar : Obtained from the ccRepo (grant-hill.group.shef.ac.uk/ccrepo) Feb. 2017
                 D. E. Woon, T. H. Dunning, Jr., J. Chem. Phys. 98, 1358 (1993)
            Ca : Obtained from the Peterson Research Group Website (tyr0.chem.wsu.edu/~kipeters) Feb. 2017
                 J. Koput, K. A. Peterson, J. Phys. Chem. 106, 9595 (2002)
         Sc-Zn : Obtained from the ccRepo (grant-hill.group.shef.ac.uk/ccrepo) Feb. 2017
                 N. B. Balabanov, K. A. Peterson, J. Chem. Phys. 123, 064107 (2005)
                 N. B. Balabanov, K. A. Peterson, J. Chem. Phys. 125, 074110 (2006)
         Ga-Kr : Obtained from the ccRepo (grant-hill.group.shef.ac.uk/ccrepo) Feb. 2017
                 A. K. Wilson, D. E. Woon, K. A. Peterson, T. H. Dunning, Jr., J. Chem. Phys. 110, 7667 (1999)
             Y : Obtained from the ccRepo (grant-hill.group.shef.ac.uk/ccrepo) Feb. 2017
                 K. A. Peterson, D. Figgen, M. Dolg, H. Stoll, J. Chem. Phys. 126, 124101 (2007)
        Ag, Au : Obtained from the Peterson Research Group Website (tyr0.chem.wsu.edu/~kipeters) Feb. 2017
                 K. A. Peterson, C. Puzzarini, Theor. Chem. Acc. 114, 283 (2005)

================================================================================
                                        WARNINGS
                       Please study these warnings very carefully!
================================================================================


WARNING: Geometry Optimization
  ===> : Switching off AutoStart
         For restart on a previous wavefunction, please use MOREAD

INFO   : the flag for use of LIBINT has been found!

================================================================================
                                       INPUT FILE
================================================================================
NAME = carbon_monoxide_B3LYP_cc-pVTZ_OPT.inp
|  1> # carbon_monoxide OPT with B3LYP/cc-pVTZ
|  2> 
|  3> ! B3LYP cc-pVTZ TightSCF Opt PAL4
|  4> 
|  5> * xyzfile 0 1 carbon_monoxide_B3LYP_cc-pVDZ_OPT.xyz
|  6> 
|  7> 
|  8>                          ****END OF INPUT****
================================================================================

                       *****************************
                       * Geometry Optimization Run *
                       *****************************

Geometry optimization settings:
Update method            Update   .... BFGS
Choice of coordinates    CoordSys .... Z-matrix Internals
Initial Hessian          InHess   .... Almoef's Model

Convergence Tolerances:
Energy Change            TolE     ....  5.0000e-06 Eh
Max. Gradient            TolMAXG  ....  3.0000e-04 Eh/bohr
RMS Gradient             TolRMSG  ....  1.0000e-04 Eh/bohr
Max. Displacement        TolMAXD  ....  4.0000e-03 bohr
RMS Displacement         TolRMSD  ....  2.0000e-03 bohr
Strict Convergence                ....  False
------------------------------------------------------------------------------
                        ORCA OPTIMIZATION COORDINATE SETUP
------------------------------------------------------------------------------

The optimization will be done in new redundant internal coordinates
Making redundant internal coordinates   ...  (new redundants) done
Evaluating the initial hessian          ...  (Almloef) done
Evaluating the coordinates              ...  done
Calculating the B-matrix                .... done
Calculating the G-matrix                .... done
Diagonalizing the G-matrix              .... done
The first mode is                       ....    0
The number of degrees of freedom        ....    1

    -----------------------------------------------------------------
                    Redundant Internal Coordinates


    -----------------------------------------------------------------
         Definition                    Initial Value    Approx d2E/dq
    -----------------------------------------------------------------
      1. B(O   1,C   0)                  1.1347         1.429605   
    -----------------------------------------------------------------

Number of atoms                         .... 2
Number of degrees of freedom            .... 1

         *************************************************************
         *                GEOMETRY OPTIMIZATION CYCLE   1            *
         *************************************************************
---------------------------------
CARTESIAN COORDINATES (ANGSTROEM)
---------------------------------
  C    -27.880672   12.166670    0.000000
  O    -26.745988   12.166670    0.000000

----------------------------
CARTESIAN COORDINATES (A.U.)
----------------------------
  NO LB      ZA    FRAG     MASS         X           Y           Z
   0 C     6.0000    0    12.011  -52.686834   22.991674    0.000000
   1 O     8.0000    0    15.999  -50.542593   22.991674    0.000000

--------------------------------
INTERNAL COORDINATES (ANGSTROEM)
--------------------------------
 C      0   0   0     0.000000000000     0.00000000     0.00000000
 O      1   0   0     1.134683849195     0.00000000     0.00000000

---------------------------
INTERNAL COORDINATES (A.U.)
---------------------------
 C      0   0   0     0.000000000000     0.00000000     0.00000000
 O      1   0   0     2.144241723562     0.00000000     0.00000000

---------------------
BASIS SET INFORMATION
---------------------
There are 2 groups of distinct atoms

 Group   1 Type C   : 18s5p2d1f contracted to 4s3p2d1f pattern {8811/311/11/1}
 Group   2 Type O   : 18s5p2d1f contracted to 4s3p2d1f pattern {8811/311/11/1}

Atom   0C    basis set group =>   1
Atom   1O    basis set group =>   2


           ************************************************************
           *        Program running with 4 parallel MPI-processes     *
           *              working on a common directory               *
           ************************************************************
------------------------------------------------------------------------------
                           ORCA GTO INTEGRAL CALCULATION
------------------------------------------------------------------------------

                         BASIS SET STATISTICS AND STARTUP INFO

 # of primitive gaussian shells          ...   52
 # of primitive gaussian functions       ...  100
 # of contracted shells                  ...   20
 # of contracted basis functions         ...   60
 Highest angular momentum                ...    3
 Maximum contraction depth               ...    8
 Integral package used                   ... LIBINT
 Integral threshhold            Thresh   ...  2.500e-11
 Primitive cut-off              TCut     ...  2.500e-12


------------------------------ INTEGRAL EVALUATION ----------------------------


 * One electron integrals 
 Pre-screening matrix                    ... done
 Shell pair data                         ... done (   0.000 sec)



           ************************************************************
           *        Program running with 4 parallel MPI-processes     *
           *              working on a common directory               *
           ************************************************************
-------------------------------------------------------------------------------
                                 ORCA SCF
-------------------------------------------------------------------------------

------------
SCF SETTINGS
------------
Hamiltonian:
 Density Functional     Method          .... DFT(GTOs)
 Exchange Functional    Exchange        .... B88
   X-Alpha parameter    XAlpha          ....  0.666667
   Becke's b parameter  XBeta           ....  0.004200
 Correlation Functional Correlation     .... LYP
 LDA part of GGA corr.  LDAOpt          .... VWN-5
 Gradients option       PostSCFGGA      .... off
 Hybrid DFT is turned on
   Fraction HF Exchange ScalHFX         ....  0.200000
   Scaling of DF-GGA-X  ScalDFX         ....  0.720000
   Scaling of DF-GGA-C  ScalDFC         ....  0.810000
   Scaling of DF-LDA-C  ScalLDAC        ....  1.000000
   Perturbative correction              ....  0.000000
   Density functional embedding theory  .... OFF
   NL short-range parameter             ....  4.800000


General Settings:
 Integral files         IntName         .... carbon_monoxide_B3LYP_cc-pVTZ_OPT
 Hartree-Fock type      HFTyp           .... RHF
 Total Charge           Charge          ....    0
 Multiplicity           Mult            ....    1
 Number of Electrons    NEL             ....   14
 Basis Dimension        Dim             ....   60
 Nuclear Repulsion      ENuc            ....     22.3855358622 Eh

Convergence Acceleration:
 DIIS                   CNVDIIS         .... on
   Start iteration      DIISMaxIt       ....    12
   Startup error        DIISStart       ....  0.200000
   # of expansion vecs  DIISMaxEq       ....     5
   Bias factor          DIISBfac        ....   1.050
   Max. coefficient     DIISMaxC        ....  10.000
 Newton-Raphson         CNVNR           .... off
 SOSCF                  CNVSOSCF        .... on
   Start iteration      SOSCFMaxIt      ....   150
   Startup grad/error   SOSCFStart      ....  0.003300
 Level Shifting         CNVShift        .... on
   Level shift para.    LevelShift      ....    0.2500
   Turn off err/grad.   ShiftErr        ....    0.0010
 Zerner damping         CNVZerner       .... off
 Static damping         CNVDamp         .... on
   Fraction old density DampFac         ....    0.7000
   Max. Damping (<1)    DampMax         ....    0.9800
   Min. Damping (>=0)   DampMin         ....    0.0000
   Turn off err/grad.   DampErr         ....    0.1000
 Fernandez-Rico         CNVRico         .... off

SCF Procedure:
 Maximum # iterations   MaxIter         ....   125
 SCF integral mode      SCFMode         .... Direct
   Integral package                     .... LIBINT
 Reset frequency        DirectResetFreq ....    20
 Integral Threshold     Thresh          ....  2.500e-11 Eh
 Primitive CutOff       TCut            ....  2.500e-12 Eh

Convergence Tolerance:
 Convergence Check Mode ConvCheckMode   .... Total+1el-Energy
 Convergence forced     ConvForced      .... 0
 Energy Change          TolE            ....  1.000e-08 Eh
 1-El. energy change                    ....  1.000e-05 Eh
 Orbital Gradient       TolG            ....  1.000e-05
 Orbital Rotation angle TolX            ....  1.000e-05
 DIIS Error             TolErr          ....  5.000e-07


Diagonalization of the overlap matrix:
Smallest eigenvalue                        ... 3.056e-03
Time for diagonalization                   ...    0.001 sec
Threshold for overlap eigenvalues          ... 1.000e-08
Number of eigenvalues below threshold      ... 0
Time for construction of square roots      ...    0.000 sec
Total time needed                          ...    0.001 sec

-------------------
DFT GRID GENERATION
-------------------

General Integration Accuracy     IntAcc      ...  4.340
Radial Grid Type                 RadialGrid  ... Gauss-Chebyshev
Angular Grid (max. acc.)         AngularGrid ... Lebedev-110
Angular grid pruning method      GridPruning ... 3 (G Style)
Weight generation scheme         WeightScheme... Becke
Basis function cutoff            BFCut       ...    1.0000e-11
Integration weight cutoff        WCut        ...    1.0000e-14
Grids for H and He will be reduced by one unit

# of grid points (after initial pruning)     ...   3372 (   0.0 sec)
# of grid points (after weights+screening)   ...   3345 (   0.0 sec)
nearest neighbour list constructed           ...    0.0 sec
Grid point re-assignment to atoms done       ...    0.0 sec
Grid point division into batches done        ...    0.0 sec
Reduced shell lists constructed in    0.0 sec

Total number of grid points                  ...     3345
Total number of batches                      ...       53
Average number of points per batch           ...       63
Average number of grid points per atom       ...     1672
Average number of shells per batch           ...    15.60 (78.00%)
Average number of basis functions per batch  ...    45.73 (76.22%)
Average number of large shells per batch     ...    13.07 (83.76%)
Average number of large basis fcns per batch ...    38.13 (83.38%)
Maximum spatial batch extension              ...  16.33, 23.60, 31.36 au
Average spatial batch extension              ...   2.80,  3.15,  3.52 au

Time for grid setup =    0.009 sec

------------------------------
INITIAL GUESS: MODEL POTENTIAL
------------------------------
Loading Hartree-Fock densities                     ... done
Calculating cut-offs                               ... done
Setting up the integral package                    ... done
Initializing the effective Hamiltonian             ... done
Starting the Coulomb interaction                   ... done (   0.0 sec)
Reading the grid                                   ... done
Mapping shells                                     ... done
Starting the XC term evaluation                    ... done (   0.0 sec)
  promolecular density results
     # of electrons  =     13.999993539
     EX              =    -13.248115190
     EC              =     -0.483254111
     EX+EC           =    -13.731369301
Transforming the Hamiltonian                       ... done (   0.0 sec)
Diagonalizing the Hamiltonian                      ... done (   0.0 sec)
Back transforming the eigenvectors                 ... done (   0.0 sec)
Now organizing SCF variables                       ... done
                      ------------------
                      INITIAL GUESS DONE (   0.1 sec)
                      ------------------
--------------
SCF ITERATIONS
--------------
ITER       Energy         Delta-E        Max-DP      RMS-DP      [F,P]     Damp
               ***  Starting incremental Fock matrix formation  ***
  0   -113.2627853765   0.000000000000 0.02561880  0.00157563  0.2267474 0.7000
  1   -113.2845534919  -0.021768115492 0.01310839  0.00078832  0.0789486 0.7000
                               ***Turning on DIIS***
  2   -113.2896626905  -0.005109198515 0.04966094  0.00121936  0.0258873 0.0000
  3   -113.3041603642  -0.014497673730 0.00961517  0.00057377  0.0242603 0.0000
  4   -113.3043042227  -0.000143858518 0.01024304  0.00029130  0.0238702 0.0000
  5   -113.3048180260  -0.000513803308 0.00312574  0.00009598  0.0069304 0.0000
                      *** Initiating the SOSCF procedure ***
                           *** Shutting down DIIS ***
                      *** Re-Reading the Fockian *** 
                      *** Removing any level shift *** 
ITER      Energy       Delta-E        Grad      Rot      Max-DP    RMS-DP
  6   -113.30486361  -0.0000455836  0.000325  0.000325  0.000706  0.000026
               *** Restarting incremental Fock matrix formation ***
  7   -113.30486682  -0.0000032063  0.000260  0.000586  0.000561  0.000023
  8   -113.30486576   0.0000010552  0.000559  0.000369  0.000265  0.000014
  9   -113.30486707  -0.0000013137  0.000010  0.000010  0.000021  0.000001
 10   -113.30486707  -0.0000000005  0.000004  0.000003  0.000009  0.000000
                 **** Energy Check signals convergence ****
              ***Rediagonalizing the Fockian in SOSCF/NRSCF***

               *****************************************************
               *                     SUCCESS                       *
               *           SCF CONVERGED AFTER  11 CYCLES          *
               *****************************************************

Setting up the final grid:

General Integration Accuracy     IntAcc      ...  4.670
Radial Grid Type                 RadialGrid  ... Gauss-Chebyshev
Angular Grid (max. acc.)         AngularGrid ... Lebedev-302
Angular grid pruning method      GridPruning ... 3 (G Style)
Weight generation scheme         WeightScheme... Becke
Basis function cutoff            BFCut       ...    1.0000e-11
Integration weight cutoff        WCut        ...    1.0000e-14
Grids for H and He will be reduced by one unit

# of grid points (after initial pruning)     ...  12424 (   0.0 sec)
# of grid points (after weights+screening)   ...  12393 (   0.0 sec)
nearest neighbour list constructed           ...    0.0 sec
Grid point re-assignment to atoms done       ...    0.0 sec
Grid point division into batches done        ...    0.0 sec
Reduced shell lists constructed in    0.0 sec

Total number of grid points                  ...    12393
Total number of batches                      ...      195
Average number of points per batch           ...       63
Average number of grid points per atom       ...     6196
Average number of shells per batch           ...    12.28 (61.40%)
Average number of basis functions per batch  ...    35.76 (59.60%)
Average number of large shells per batch     ...    10.00 (81.43%)
Average number of large basis fcns per batch ...    28.88 (80.76%)
Maximum spatial batch extension              ...  15.75, 22.15, 22.15 au
Average spatial batch extension              ...   1.69,  1.86,  1.80 au

Final grid set up in    0.1 sec
Final integration                            ... done (   0.0 sec)
Change in XC energy                          ...     0.000004621
Integrated number of electrons               ...    13.999993320
Previous integrated no of electrons          ...    14.000002884

----------------
TOTAL SCF ENERGY
----------------

Total Energy       :         -113.30486245 Eh           -3083.18205 eV

Components:
Nuclear Repulsion  :           22.38553586 Eh             609.14140 eV
Electronic Energy  :         -135.69039832 Eh           -3692.32345 eV
One Electron Energy:         -198.14595649 Eh           -5391.82559 eV
Two Electron Energy:           62.45555817 Eh            1699.50214 eV

Virial components:
Potential Energy   :         -225.95715506 Eh           -6148.60678 eV
Kinetic Energy     :          112.65229260 Eh            3065.42472 eV
Virial Ratio       :            2.00579278


DFT components:
N(Alpha)           :        6.999996659986 electrons
N(Beta)            :        6.999996659986 electrons
N(Total)           :       13.999993319972 electrons
E(X)               :      -10.601703297295 Eh       
E(C)               :       -0.573354993709 Eh       
E(XC)              :      -11.175058291004 Eh       
DFET-embed. en.    :        0.000000000000 Eh       

---------------
SCF CONVERGENCE
---------------

  Last Energy change         ...   -1.1745e-10  Tolerance :   1.0000e-08
  Last MAX-Density change    ...    2.2686e-06  Tolerance :   1.0000e-07
  Last RMS-Density change    ...    5.7407e-08  Tolerance :   5.0000e-09
  Last Orbital Gradient      ...    4.8703e-07  Tolerance :   1.0000e-05
  Last Orbital Rotation      ...    4.9348e-07  Tolerance :   1.0000e-05

             **** THE GBW FILE WAS UPDATED (carbon_monoxide_B3LYP_cc-pVTZ_OPT.gbw) ****
             **** DENSITY FILE WAS UPDATED (carbon_monoxide_B3LYP_cc-pVTZ_OPT.scfp) ****
             **** ENERGY FILE WAS UPDATED (carbon_monoxide_B3LYP_cc-pVTZ_OPT.en.tmp) ****
             **** THE GBW FILE WAS UPDATED (carbon_monoxide_B3LYP_cc-pVTZ_OPT.gbw) ****
             **** DENSITY FILE WAS UPDATED (carbon_monoxide_B3LYP_cc-pVTZ_OPT.scfp) ****
----------------
ORBITAL ENERGIES
----------------

  NO   OCC          E(Eh)            E(eV) 
   0   2.0000     -19.235949      -523.4368 
   1   2.0000     -10.293315      -280.0953 
   2   2.0000      -1.163537       -31.6615 
   3   2.0000      -0.578383       -15.7386 
   4   2.0000      -0.476451       -12.9649 
   5   2.0000      -0.476451       -12.9649 
   6   2.0000      -0.380874       -10.3641 
   7   0.0000      -0.032967        -0.8971 
   8   0.0000      -0.032967        -0.8971 
   9   0.0000       0.159982         4.3533 
  10   0.0000       0.290295         7.8993 
  11   0.0000       0.290295         7.8993 
  12   0.0000       0.305528         8.3138 
  13   0.0000       0.538930        14.6650 
  14   0.0000       0.592316        16.1177 
  15   0.0000       0.615262        16.7421 
  16   0.0000       0.615262        16.7421 
  17   0.0000       0.636333        17.3155 
  18   0.0000       0.636626        17.3235 
  19   0.0000       0.855129        23.2693 
  20   0.0000       0.855129        23.2693 
  21   0.0000       1.112354        30.2687 
  22   0.0000       1.302657        35.4471 
  23   0.0000       1.497825        40.7579 
  24   0.0000       1.497875        40.7593 
  25   0.0000       1.867097        50.8063 
  26   0.0000       1.867097        50.8063 
  27   0.0000       1.928608        52.4801 
  28   0.0000       1.985985        54.0414 
  29   0.0000       1.985985        54.0414 
  30   0.0000       2.422191        65.9112 
  31   0.0000       2.633501        71.6612 
  32   0.0000       2.633501        71.6612 
  33   0.0000       2.805221        76.3339 
  34   0.0000       2.805329        76.3369 
  35   0.0000       2.928751        79.6954 
  36   0.0000       2.929449        79.7144 
  37   0.0000       2.959981        80.5452 
  38   0.0000       2.959981        80.5452 
  39   0.0000       3.093432        84.1766 
  40   0.0000       3.216415        87.5231 
  41   0.0000       3.216415        87.5231 
  42   0.0000       3.354466        91.2797 
  43   0.0000       4.047265       110.1317 
  44   0.0000       4.047265       110.1317 
  45   0.0000       4.394069       119.5687 
  46   0.0000       5.069866       137.9581 
  47   0.0000       5.069866       137.9581 
  48   0.0000       5.461505       148.6151 
  49   0.0000       5.463627       148.6728 
  50   0.0000       6.083807       165.5488 
  51   0.0000       6.202682       168.7836 
  52   0.0000       6.202682       168.7836 
  53   0.0000       6.215608       169.1353 
  54   0.0000       6.217591       169.1893 
  55   0.0000       6.709500       182.5748 
  56   0.0000       6.721714       182.9071 
  57   0.0000       6.721714       182.9071 
  58   0.0000       6.960466       189.4039 
  59   0.0000      12.095992       329.1487 

                    ********************************
                    * MULLIKEN POPULATION ANALYSIS *
                    ********************************

-----------------------
MULLIKEN ATOMIC CHARGES
-----------------------
   0 C :   -0.017702
   1 O :    0.017702
Sum of atomic charges:   -0.0000000

--------------------------------
MULLIKEN REDUCED ORBITAL CHARGES
--------------------------------
  0 C s       :     3.884860  s :     3.884860
      pz      :     0.520064  p :     2.006596
      px      :     0.966468
      py      :     0.520064
      dz2     :     0.009421  d :     0.113754
      dxz     :     0.038036
      dyz     :     0.000000
      dx2y2   :     0.028262
      dxy     :     0.038036
      f0      :     0.001712  f :     0.012492
      f+1     :     0.001261
      f-1     :     0.000285
      f+2     :     0.002853
      f-2     :    -0.000000
      f+3     :     0.002102
      f-3     :     0.004279
  1 O s       :     3.684805  s :     3.684805
      pz      :     1.424929  p :     4.262216
      px      :     1.412359
      py      :     1.424929
      dz2     :     0.002436  d :     0.032965
      dxz     :     0.011611
      dyz     :     0.000000
      dx2y2   :     0.007307
      dxy     :     0.011611
      f0      :     0.000300  f :     0.002312
      f+1     :     0.000270
      f-1     :     0.000049
      f+2     :     0.000496
      f-2     :     0.000000
      f+3     :     0.000449
      f-3     :     0.000747


                     *******************************
                     * LOEWDIN POPULATION ANALYSIS *
                     *******************************

----------------------
LOEWDIN ATOMIC CHARGES
----------------------
   0 C :   -0.324201
   1 O :    0.324201

-------------------------------
LOEWDIN REDUCED ORBITAL CHARGES
-------------------------------
  0 C s       :     3.528648  s :     3.528648
      pz      :     0.562068  p :     2.372810
      px      :     1.248675
      py      :     0.562068
      dz2     :     0.038746  d :     0.336222
      dxz     :     0.090620
      dyz     :     0.000000
      dx2y2   :     0.116237
      dxy     :     0.090620
      f0      :     0.010857  f :     0.086521
      f+1     :     0.010732
      f-1     :     0.001809
      f+2     :     0.018095
      f-2     :     0.000000
      f+3     :     0.017886
      f-3     :     0.027142
  1 O s       :     3.396265  s :     3.396265
      pz      :     1.307677  p :     4.217551
      px      :     1.602196
      py      :     1.307677
      dz2     :     0.009405  d :     0.057048
      dxz     :     0.009715
      dyz     :     0.000000
      dx2y2   :     0.028214
      dxy     :     0.009715
      f0      :     0.000364  f :     0.004935
      f+1     :     0.001124
      f-1     :     0.000060
      f+2     :     0.000605
      f-2     :     0.000000
      f+3     :     0.001873
      f-3     :     0.000909


                      *****************************
                      * MAYER POPULATION ANALYSIS *
                      *****************************

  NA   - Mulliken gross atomic population
  ZA   - Total nuclear charge
  QA   - Mulliken gross atomic charge
  VA   - Mayer's total valence
  BVA  - Mayer's bonded valence
  FA   - Mayer's free valence

  ATOM       NA         ZA         QA         VA         BVA        FA
  0 C      6.0177     6.0000    -0.0177     2.5319     2.5319    -0.0000
  1 O      7.9823     8.0000     0.0177     2.5319     2.5319    -0.0000

  Mayer bond orders larger than 0.100000
B(  0-C ,  1-O ) :   2.5319 

-------
TIMINGS
-------

Total SCF time: 0 days 0 hours 0 min 1 sec 

Total time                  ....       1.993 sec
Sum of individual times     ....       1.841 sec  ( 92.4%)

Fock matrix formation       ....       1.693 sec  ( 84.9%)
  XC integration            ....       0.058 sec  (  3.4% of F)
    Basis function eval.    ....       0.017 sec  ( 29.9% of XC)
    Density eval.           ....       0.008 sec  ( 13.8% of XC)
    XC-Functional eval.     ....       0.006 sec  ( 10.8% of XC)
    XC-Potential eval.      ....       0.014 sec  ( 24.2% of XC)
Diagonalization             ....       0.003 sec  (  0.1%)
Density matrix formation    ....       0.001 sec  (  0.0%)
Population analysis         ....       0.001 sec  (  0.1%)
Initial guess               ....       0.074 sec  (  3.7%)
Orbital Transformation      ....       0.000 sec  (  0.0%)
Orbital Orthonormalization  ....       0.000 sec  (  0.0%)
DIIS solution               ....       0.001 sec  (  0.0%)
SOSCF solution              ....       0.001 sec  (  0.1%)
Grid generation             ....       0.067 sec  (  3.4%)

-------------------------   --------------------
FINAL SINGLE POINT ENERGY      -113.304862453915
-------------------------   --------------------



           ************************************************************
           *        Program running with 4 parallel MPI-processes     *
           *              working on a common directory               *
           ************************************************************
------------------------------------------------------------------------------
                         ORCA SCF GRADIENT CALCULATION
------------------------------------------------------------------------------

Gradient of the Kohn-Sham DFT energy:
Kohn-Sham wavefunction type      ... RKS
Hartree-Fock exchange scaling    ...    0.200
Number of operators              ...    1
Number of atoms                  ...    2
Basis set dimensions             ...   60
Integral neglect threshold       ... 2.5e-11
Integral primitive cutoff        ... 2.5e-12

Nuclear repulsion gradient       ... done
One Electron Gradient            ... done
Pre-screening matrix             ... done
Starting the two electron gradient:
Two electron gradient done
Exchange-correlation gradient    ... done

------------------
CARTESIAN GRADIENT
------------------

   1   C   :   -0.019421678    0.000000000   -0.000000000
   2   O   :    0.019421678   -0.000000000    0.000000000

Difference to translation invariance:
           :    0.0000000000    0.0000000000   -0.0000000000

Norm of the cartesian gradient     ...    0.0274664005
RMS gradient                       ...    0.0112131111
MAX gradient                       ...    0.0194216781

-------
TIMINGS
-------

Total SCF gradient time            ...        0.448 sec

One electron gradient       ....       0.002 sec  (  0.5%)
Prescreening matrices       ....       0.032 sec  (  7.1%)
Two electron gradient       ....       0.261 sec  ( 58.3%)
XC gradient                 ....       0.030 sec  (  6.7%)
------------------------------------------------------------------------------
                         ORCA GEOMETRY RELAXATION STEP
------------------------------------------------------------------------------

Reading the OPT-File                    .... done
Getting information on internals        .... done
Copying old internal coords+grads       .... done
Making the new internal coordinates     .... (new redundants).... done
Validating the new internal coordinates .... (new redundants).... done
Calculating the B-matrix                .... done
Calculating the G,G- and P matrices     .... done
Transforming gradient to internals      .... done
Projecting the internal gradient        .... done
Number of atoms                         ....   2
Number of internal coordinates          ....   1
Current Energy                          ....  -113.304862454 Eh
Current gradient norm                   ....     0.027466401 Eh/bohr
Maximum allowed component of the step   ....  0.300
Current trust radius                    ....  0.300
Evaluating the initial hessian          ....  (Almloef) done
Projecting the Hessian                  .... done
Forming the augmented Hessian           .... done
Diagonalizing the augmented Hessian     .... done
Last element of RFO vector              ....  0.999907766
Lowest eigenvalues of augmented Hessian:
 -0.000263802
Length of the computed step             ....  0.013582838
The final length of the internal step   ....  0.013582838
Converting the step to cartesian space:
 Initial RMS(Int)=    0.0135828381
Transforming coordinates:
 Iter   0:  RMS(Cart)=    0.0039210276 RMS(Int)=    0.0135828381
 Iter   1:  RMS(Cart)=    0.0000000000 RMS(Int)=    0.0000000000
done
Storing new coordinates                 .... done

                                .--------------------.
          ----------------------|Geometry convergence|-------------------------
          Item                value                   Tolerance       Converged
          ---------------------------------------------------------------------
          RMS gradient        0.0194216781            0.0001000000      NO
          MAX gradient        0.0194216781            0.0003000000      NO
          RMS step            0.0135828381            0.0020000000      NO
          MAX step            0.0135828381            0.0040000000      NO
          ........................................................
          Max(Bonds)      0.0072      Max(Angles)    0.00
          Max(Dihed)        0.00      Max(Improp)    0.00
          ---------------------------------------------------------------------

The optimization has not yet converged - more geometry cycles are needed


    ---------------------------------------------------------------------------
                         Redundant Internal Coordinates
                            (Angstroem and degrees)

        Definition                    Value    dE/dq     Step     New-Value
    ----------------------------------------------------------------------------
     1. B(O   1,C   0)                1.1347  0.019422 -0.0072    1.1275   
    ----------------------------------------------------------------------------

         *************************************************************
         *                GEOMETRY OPTIMIZATION CYCLE   2            *
         *************************************************************
---------------------------------
CARTESIAN COORDINATES (ANGSTROEM)
---------------------------------
  C    -27.877078   12.166670    0.000000
  O    -26.749582   12.166670    0.000000

----------------------------
CARTESIAN COORDINATES (A.U.)
----------------------------
  NO LB      ZA    FRAG     MASS         X           Y           Z
   0 C     6.0000    0    12.011  -52.680043   22.991674    0.000000
   1 O     8.0000    0    15.999  -50.549384   22.991674    0.000000

--------------------------------
INTERNAL COORDINATES (ANGSTROEM)
--------------------------------
 C      0   0   0     0.000000000000     0.00000000     0.00000000
 O      1   0   0     1.127496120824     0.00000000     0.00000000

---------------------------
INTERNAL COORDINATES (A.U.)
---------------------------
 C      0   0   0     0.000000000000     0.00000000     0.00000000
 O      1   0   0     2.130658885417     0.00000000     0.00000000



           ************************************************************
           *        Program running with 4 parallel MPI-processes     *
           *              working on a common directory               *
           ************************************************************


           ************************************************************
           *        Program running with 4 parallel MPI-processes     *
           *              working on a common directory               *
           ************************************************************

Diagonalization of the overlap matrix:
Smallest eigenvalue                        ... 3.009e-03
Time for diagonalization                   ...    0.001 sec
Threshold for overlap eigenvalues          ... 1.000e-08
Number of eigenvalues below threshold      ... 0
Time for construction of square roots      ...    0.000 sec
Total time needed                          ...    0.001 sec

-------------------
DFT GRID GENERATION
-------------------

General Integration Accuracy     IntAcc      ...  4.340
Radial Grid Type                 RadialGrid  ... Gauss-Chebyshev
Angular Grid (max. acc.)         AngularGrid ... Lebedev-110
Angular grid pruning method      GridPruning ... 3 (G Style)
Weight generation scheme         WeightScheme... Becke
Basis function cutoff            BFCut       ...    1.0000e-11
Integration weight cutoff        WCut        ...    1.0000e-14
Grids for H and He will be reduced by one unit

# of grid points (after initial pruning)     ...   3372 (   0.0 sec)
# of grid points (after weights+screening)   ...   3345 (   0.0 sec)
nearest neighbour list constructed           ...    0.0 sec
Grid point re-assignment to atoms done       ...    0.0 sec
Grid point division into batches done        ...    0.0 sec
Reduced shell lists constructed in    0.0 sec

Total number of grid points                  ...     3345
Total number of batches                      ...       54
Average number of points per batch           ...       61
Average number of grid points per atom       ...     1672
Average number of shells per batch           ...    15.60 (78.00%)
Average number of basis functions per batch  ...    45.73 (76.22%)
Average number of large shells per batch     ...    13.07 (83.76%)
Average number of large basis fcns per batch ...    38.13 (83.38%)
Maximum spatial batch extension              ...  16.32, 23.60, 31.36 au
Average spatial batch extension              ...   2.73,  3.07,  3.45 au

Time for grid setup =    0.008 sec

--------------
SCF ITERATIONS
--------------
ITER       Energy         Delta-E        Max-DP      RMS-DP      [F,P]     Damp
               ***  Starting incremental Fock matrix formation  ***
                      *** Initiating the SOSCF procedure ***
                      *** Re-Reading the Fockian *** 
                      *** Removing any level shift *** 
ITER      Energy       Delta-E        Grad      Rot      Max-DP    RMS-DP
  0   -113.30498467 -113.3049846734  0.001776  0.001776  0.002199  0.000136
               *** Restarting incremental Fock matrix formation ***
  1   -113.30501630  -0.0000316309  0.000825  0.001757  0.002060  0.000087
  2   -113.30500436   0.0000119464  0.001998  0.001402  0.000879  0.000052
  3   -113.30502193  -0.0000175696  0.000215  0.000333  0.001313  0.000031
  4   -113.30502209  -0.0000001622  0.000172  0.000154  0.000605  0.000014
                  ***Gradient check signals convergence***
              ***Rediagonalizing the Fockian in SOSCF/NRSCF***

               *****************************************************
               *                     SUCCESS                       *
               *           SCF CONVERGED AFTER   5 CYCLES          *
               *****************************************************

Setting up the final grid:

General Integration Accuracy     IntAcc      ...  4.670
Radial Grid Type                 RadialGrid  ... Gauss-Chebyshev
Angular Grid (max. acc.)         AngularGrid ... Lebedev-302
Angular grid pruning method      GridPruning ... 3 (G Style)
Weight generation scheme         WeightScheme... Becke
Basis function cutoff            BFCut       ...    1.0000e-11
Integration weight cutoff        WCut        ...    1.0000e-14
Grids for H and He will be reduced by one unit

# of grid points (after initial pruning)     ...  12424 (   0.0 sec)
# of grid points (after weights+screening)   ...  12393 (   0.0 sec)
nearest neighbour list constructed           ...    0.0 sec
Grid point re-assignment to atoms done       ...    0.0 sec
Grid point division into batches done        ...    0.0 sec
Reduced shell lists constructed in    0.0 sec

Total number of grid points                  ...    12393
Total number of batches                      ...      195
Average number of points per batch           ...       63
Average number of grid points per atom       ...     6196
Average number of shells per batch           ...    12.12 (60.60%)
Average number of basis functions per batch  ...    35.36 (58.93%)
Average number of large shells per batch     ...     9.92 (81.85%)
Average number of large basis fcns per batch ...    28.44 (80.43%)
Maximum spatial batch extension              ...  15.75, 24.37, 22.15 au
Average spatial batch extension              ...   1.67,  1.86,  1.82 au

Final grid set up in    0.1 sec
Final integration                            ... done (   0.0 sec)
Change in XC energy                          ...     0.000007746
Integrated number of electrons               ...    13.999994015
Previous integrated no of electrons          ...    14.000009474
Total Energy       :         -113.30501459 Eh           -3083.18619 eV
  Last Energy change         ...   -2.4605e-07  Tolerance :   1.0000e-08
  Last MAX-Density change    ...    1.6289e-06  Tolerance :   1.0000e-07
             **** THE GBW FILE WAS UPDATED (carbon_monoxide_B3LYP_cc-pVTZ_OPT.gbw) ****
             **** DENSITY FILE WAS UPDATED (carbon_monoxide_B3LYP_cc-pVTZ_OPT.scfp) ****
             **** ENERGY FILE WAS UPDATED (carbon_monoxide_B3LYP_cc-pVTZ_OPT.en.tmp) ****
             **** THE GBW FILE WAS UPDATED (carbon_monoxide_B3LYP_cc-pVTZ_OPT.gbw) ****
             **** DENSITY FILE WAS UPDATED (carbon_monoxide_B3LYP_cc-pVTZ_OPT.scfp) ****
Total SCF time: 0 days 0 hours 0 min 1 sec 

-------------------------   --------------------
FINAL SINGLE POINT ENERGY      -113.305014589438
-------------------------   --------------------



           ************************************************************
           *        Program running with 4 parallel MPI-processes     *
           *              working on a common directory               *
           ************************************************************
------------------------------------------------------------------------------
                         ORCA SCF GRADIENT CALCULATION
------------------------------------------------------------------------------

Gradient of the Kohn-Sham DFT energy:
Kohn-Sham wavefunction type      ... RKS
Hartree-Fock exchange scaling    ...    0.200
Number of operators              ...    1
Number of atoms                  ...    2
Basis set dimensions             ...   60
Integral neglect threshold       ... 2.5e-11
Integral primitive cutoff        ... 2.5e-12

Nuclear repulsion gradient       ... done
One Electron Gradient            ... done
Pre-screening matrix             ... done
Starting the two electron gradient:
Two electron gradient done
Exchange-correlation gradient    ... done

------------------
CARTESIAN GRADIENT
------------------

   1   C   :   -0.002804769    0.000000000   -0.000000000
   2   O   :    0.002804769   -0.000000000    0.000000000

Difference to translation invariance:
           :    0.0000000000    0.0000000000   -0.0000000000

Norm of the cartesian gradient     ...    0.0039665425
RMS gradient                       ...    0.0016193342
MAX gradient                       ...    0.0028047691

-------
TIMINGS
-------

Total SCF gradient time            ...        0.363 sec

One electron gradient       ....       0.006 sec  (  1.7%)
Prescreening matrices       ....       0.032 sec  (  8.8%)
Two electron gradient       ....       0.147 sec  ( 40.4%)
XC gradient                 ....       0.029 sec  (  8.0%)
------------------------------------------------------------------------------
                         ORCA GEOMETRY RELAXATION STEP
------------------------------------------------------------------------------

Reading the OPT-File                    .... done
Getting information on internals        .... done
Copying old internal coords+grads       .... done
Making the new internal coordinates     .... (new redundants).... done
Validating the new internal coordinates .... (new redundants).... done
Calculating the B-matrix                .... done
Calculating the G,G- and P matrices     .... done
Transforming gradient to internals      .... done
Projecting the internal gradient        .... done
Number of atoms                         ....   2
Number of internal coordinates          ....   1
Current Energy                          ....  -113.305014589 Eh
Current gradient norm                   ....     0.003966542 Eh/bohr
Maximum allowed component of the step   ....  0.300
Current trust radius                    ....  0.300
Updating the Hessian (BFGS)             .... done
Forming the augmented Hessian           .... done
Diagonalizing the augmented Hessian     .... done
Last element of RFO vector              ....  0.999997372
Lowest eigenvalues of augmented Hessian:
 -0.000006430
Length of the computed step             ....  0.002292636
The final length of the internal step   ....  0.002292636
Converting the step to cartesian space:
 Initial RMS(Int)=    0.0022926360
Transforming coordinates:
 Iter   0:  RMS(Cart)=    0.0006618270 RMS(Int)=    0.0022926360
 Iter   1:  RMS(Cart)=    0.0000000000 RMS(Int)=    0.0000000000
done
Storing new coordinates                 .... done

                                .--------------------.
          ----------------------|Geometry convergence|-------------------------
          Item                value                   Tolerance       Converged
          ---------------------------------------------------------------------
          Energy change      -0.0001521355            0.0000050000      NO
          RMS gradient        0.0028047691            0.0001000000      NO
          MAX gradient        0.0028047691            0.0003000000      NO
          RMS step            0.0022926360            0.0020000000      NO
          MAX step            0.0022926360            0.0040000000      YES
          ........................................................
          Max(Bonds)      0.0012      Max(Angles)    0.00
          Max(Dihed)        0.00      Max(Improp)    0.00
          ---------------------------------------------------------------------

The optimization has not yet converged - more geometry cycles are needed


    ---------------------------------------------------------------------------
                         Redundant Internal Coordinates
                            (Angstroem and degrees)

        Definition                    Value    dE/dq     Step     New-Value
    ----------------------------------------------------------------------------
     1. B(O   1,C   0)                1.1275  0.002805 -0.0012    1.1263   
    ----------------------------------------------------------------------------

         *************************************************************
         *                GEOMETRY OPTIMIZATION CYCLE   3            *
         *************************************************************
---------------------------------
CARTESIAN COORDINATES (ANGSTROEM)
---------------------------------
  C    -27.876471   12.166670    0.000000
  O    -26.750189   12.166670    0.000000

----------------------------
CARTESIAN COORDINATES (A.U.)
----------------------------
  NO LB      ZA    FRAG     MASS         X           Y           Z
   0 C     6.0000    0    12.011  -52.678897   22.991674    0.000000
   1 O     8.0000    0    15.999  -50.550530   22.991674    0.000000

--------------------------------
INTERNAL COORDINATES (ANGSTROEM)
--------------------------------
 C      0   0   0     0.000000000000     0.00000000     0.00000000
 O      1   0   0     1.126282910084     0.00000000     0.00000000

---------------------------
INTERNAL COORDINATES (A.U.)
---------------------------
 C      0   0   0     0.000000000000     0.00000000     0.00000000
 O      1   0   0     2.128366249374     0.00000000     0.00000000



           ************************************************************
           *        Program running with 4 parallel MPI-processes     *
           *              working on a common directory               *
           ************************************************************


           ************************************************************
           *        Program running with 4 parallel MPI-processes     *
           *              working on a common directory               *
           ************************************************************

Diagonalization of the overlap matrix:
Smallest eigenvalue                        ... 3.001e-03
Time for diagonalization                   ...    0.001 sec
Threshold for overlap eigenvalues          ... 1.000e-08
Number of eigenvalues below threshold      ... 0
Time for construction of square roots      ...    0.000 sec
Total time needed                          ...    0.001 sec

-------------------
DFT GRID GENERATION
-------------------

General Integration Accuracy     IntAcc      ...  4.340
Radial Grid Type                 RadialGrid  ... Gauss-Chebyshev
Angular Grid (max. acc.)         AngularGrid ... Lebedev-110
Angular grid pruning method      GridPruning ... 3 (G Style)
Weight generation scheme         WeightScheme... Becke
Basis function cutoff            BFCut       ...    1.0000e-11
Integration weight cutoff        WCut        ...    1.0000e-14
Grids for H and He will be reduced by one unit

# of grid points (after initial pruning)     ...   3372 (   0.0 sec)
# of grid points (after weights+screening)   ...   3345 (   0.0 sec)
nearest neighbour list constructed           ...    0.0 sec
Grid point re-assignment to atoms done       ...    0.0 sec
Grid point division into batches done        ...    0.0 sec
Reduced shell lists constructed in    0.0 sec

Total number of grid points                  ...     3345
Total number of batches                      ...       54
Average number of points per batch           ...       61
Average number of grid points per atom       ...     1672
Average number of shells per batch           ...    15.60 (78.00%)
Average number of basis functions per batch  ...    45.73 (76.22%)
Average number of large shells per batch     ...    13.07 (83.76%)
Average number of large basis fcns per batch ...    38.13 (83.38%)
Maximum spatial batch extension              ...  16.32, 23.60, 31.36 au
Average spatial batch extension              ...   2.73,  3.06,  3.46 au

Time for grid setup =    0.006 sec

--------------
SCF ITERATIONS
--------------
ITER       Energy         Delta-E        Max-DP      RMS-DP      [F,P]     Damp
               ***  Starting incremental Fock matrix formation  ***
                      *** Initiating the SOSCF procedure ***
                      *** Re-Reading the Fockian *** 
                      *** Removing any level shift *** 
ITER      Energy       Delta-E        Grad      Rot      Max-DP    RMS-DP
  0   -113.30502501 -113.3050250122  0.000304  0.000304  0.000374  0.000023
               *** Restarting incremental Fock matrix formation ***
  1   -113.30502592  -0.0000009123  0.000139  0.000294  0.000353  0.000015
  2   -113.30502559   0.0000003351  0.000335  0.000236  0.000148  0.000009
  3   -113.30502608  -0.0000004955  0.000037  0.000057  0.000225  0.000005
  4   -113.30502609  -0.0000000046  0.000029  0.000026  0.000104  0.000002
                 **** Energy Check signals convergence ****
              ***Rediagonalizing the Fockian in SOSCF/NRSCF***

               *****************************************************
               *                     SUCCESS                       *
               *           SCF CONVERGED AFTER   5 CYCLES          *
               *****************************************************

Setting up the final grid:

General Integration Accuracy     IntAcc      ...  4.670
Radial Grid Type                 RadialGrid  ... Gauss-Chebyshev
Angular Grid (max. acc.)         AngularGrid ... Lebedev-302
Angular grid pruning method      GridPruning ... 3 (G Style)
Weight generation scheme         WeightScheme... Becke
Basis function cutoff            BFCut       ...    1.0000e-11
Integration weight cutoff        WCut        ...    1.0000e-14
Grids for H and He will be reduced by one unit

# of grid points (after initial pruning)     ...  12424 (   0.0 sec)
# of grid points (after weights+screening)   ...  12393 (   0.0 sec)
nearest neighbour list constructed           ...    0.0 sec
Grid point re-assignment to atoms done       ...    0.0 sec
Grid point division into batches done        ...    0.1 sec
Reduced shell lists constructed in    0.1 sec

Total number of grid points                  ...    12393
Total number of batches                      ...      195
Average number of points per batch           ...       63
Average number of grid points per atom       ...     6196
Average number of shells per batch           ...    12.28 (61.40%)
Average number of basis functions per batch  ...    35.72 (59.53%)
Average number of large shells per batch     ...     9.92 (80.78%)
Average number of large basis fcns per batch ...    28.72 (80.40%)
Maximum spatial batch extension              ...  15.75, 22.15, 22.15 au
Average spatial batch extension              ...   1.70,  1.87,  1.81 au

Final grid set up in    0.1 sec
Final integration                            ... done (   0.0 sec)
Change in XC energy                          ...     0.000008344
Integrated number of electrons               ...    13.999994176
Previous integrated no of electrons          ...    14.000010666
Total Energy       :         -113.30501775 Eh           -3083.18628 eV
  Last Energy change         ...   -7.1797e-09  Tolerance :   1.0000e-08
  Last MAX-Density change    ...    3.3323e-07  Tolerance :   1.0000e-07
             **** THE GBW FILE WAS UPDATED (carbon_monoxide_B3LYP_cc-pVTZ_OPT.gbw) ****
             **** DENSITY FILE WAS UPDATED (carbon_monoxide_B3LYP_cc-pVTZ_OPT.scfp) ****
             **** ENERGY FILE WAS UPDATED (carbon_monoxide_B3LYP_cc-pVTZ_OPT.en.tmp) ****
             **** THE GBW FILE WAS UPDATED (carbon_monoxide_B3LYP_cc-pVTZ_OPT.gbw) ****
             **** DENSITY FILE WAS UPDATED (carbon_monoxide_B3LYP_cc-pVTZ_OPT.scfp) ****
Total SCF time: 0 days 0 hours 0 min 1 sec 

-------------------------   --------------------
FINAL SINGLE POINT ENERGY      -113.305017752767
-------------------------   --------------------



           ************************************************************
           *        Program running with 4 parallel MPI-processes     *
           *              working on a common directory               *
           ************************************************************
------------------------------------------------------------------------------
                         ORCA SCF GRADIENT CALCULATION
------------------------------------------------------------------------------

Gradient of the Kohn-Sham DFT energy:
Kohn-Sham wavefunction type      ... RKS
Hartree-Fock exchange scaling    ...    0.200
Number of operators              ...    1
Number of atoms                  ...    2
Basis set dimensions             ...   60
Integral neglect threshold       ... 2.5e-11
Integral primitive cutoff        ... 2.5e-12

Nuclear repulsion gradient       ... done
One Electron Gradient            ... done
Pre-screening matrix             ... done
Starting the two electron gradient:
Two electron gradient done
Exchange-correlation gradient    ... done

------------------
CARTESIAN GRADIENT
------------------

   1   C   :    0.000083589    0.000000000   -0.000000000
   2   O   :   -0.000083589   -0.000000000    0.000000000

Difference to translation invariance:
           :   -0.0000000000    0.0000000000   -0.0000000000

Norm of the cartesian gradient     ...    0.0001182130
RMS gradient                       ...    0.0000482603
MAX gradient                       ...    0.0000835892

-------
TIMINGS
-------

Total SCF gradient time            ...        0.434 sec

One electron gradient       ....       0.009 sec  (  2.0%)
Prescreening matrices       ....       0.033 sec  (  7.6%)
Two electron gradient       ....       0.142 sec  ( 32.7%)
XC gradient                 ....       0.040 sec  (  9.2%)
------------------------------------------------------------------------------
                         ORCA GEOMETRY RELAXATION STEP
------------------------------------------------------------------------------

Reading the OPT-File                    .... done
Getting information on internals        .... done
Copying old internal coords+grads       .... done
Making the new internal coordinates     .... (new redundants).... done
Validating the new internal coordinates .... (new redundants).... done
Calculating the B-matrix                .... done
Calculating the G,G- and P matrices     .... done
Transforming gradient to internals      .... done
Projecting the internal gradient        .... done
Number of atoms                         ....   2
Number of internal coordinates          ....   1
Current Energy                          ....  -113.305017753 Eh
Current gradient norm                   ....     0.000118213 Eh/bohr
Maximum allowed component of the step   ....  0.300
Current trust radius                    ....  0.300
Updating the Hessian (BFGS)             .... done
Forming the augmented Hessian           .... done
Diagonalizing the augmented Hessian     .... done
Last element of RFO vector              ....  0.999999998
Lowest eigenvalues of augmented Hessian:
 -0.000000006
Length of the computed step             ....  0.000066349
The final length of the internal step   ....  0.000066349
Converting the step to cartesian space:
 Initial RMS(Int)=    0.0000663490
Transforming coordinates:
 Iter   0:  RMS(Cart)=    0.0000191533 RMS(Int)=    0.0000663490
 Iter   1:  RMS(Cart)=    0.0000000000 RMS(Int)=    0.0000000000
done
Storing new coordinates                 .... done

                                .--------------------.
          ----------------------|Geometry convergence|-------------------------
          Item                value                   Tolerance       Converged
          ---------------------------------------------------------------------
          Energy change      -0.0000031633            0.0000050000      YES
          RMS gradient        0.0000835892            0.0001000000      YES
          MAX gradient        0.0000835892            0.0003000000      YES
          RMS step            0.0000663490            0.0020000000      YES
          MAX step            0.0000663490            0.0040000000      YES
          ........................................................
          Max(Bonds)      0.0000      Max(Angles)    0.00
          Max(Dihed)        0.00      Max(Improp)    0.00
          ---------------------------------------------------------------------

                    ***********************HURRAY********************
                    ***        THE OPTIMIZATION HAS CONVERGED     ***
                    *************************************************


    ---------------------------------------------------------------------------
                         Redundant Internal Coordinates

                          --- Optimized Parameters ---  
                            (Angstroem and degrees)

        Definition                    OldVal   dE/dq     Step     FinalVal
    ----------------------------------------------------------------------------
     1. B(O   1,C   0)                1.1263 -0.000084  0.0000    1.1263   
    ----------------------------------------------------------------------------
                 *******************************************************
                 *** FINAL ENERGY EVALUATION AT THE STATIONARY POINT ***
                 ***               (AFTER    3 CYCLES)               ***
                 *******************************************************
---------------------------------
CARTESIAN COORDINATES (ANGSTROEM)
---------------------------------
  C    -27.876489   12.166670    0.000000
  O    -26.750171   12.166670    0.000000

----------------------------
CARTESIAN COORDINATES (A.U.)
----------------------------
  NO LB      ZA    FRAG     MASS         X           Y           Z
   0 C     6.0000    0    12.011  -52.678930   22.991674    0.000000
   1 O     8.0000    0    15.999  -50.550497   22.991674    0.000000

--------------------------------
INTERNAL COORDINATES (ANGSTROEM)
--------------------------------
 C      0   0   0     0.000000000000     0.00000000     0.00000000
 O      1   0   0     1.126318020451     0.00000000     0.00000000

---------------------------
INTERNAL COORDINATES (A.U.)
---------------------------
 C      0   0   0     0.000000000000     0.00000000     0.00000000
 O      1   0   0     2.128432598353     0.00000000     0.00000000

---------------------
BASIS SET INFORMATION
---------------------
There are 2 groups of distinct atoms

 Group   1 Type C   : 18s5p2d1f contracted to 4s3p2d1f pattern {8811/311/11/1}
 Group   2 Type O   : 18s5p2d1f contracted to 4s3p2d1f pattern {8811/311/11/1}

Atom   0C    basis set group =>   1
Atom   1O    basis set group =>   2


           ************************************************************
           *        Program running with 4 parallel MPI-processes     *
           *              working on a common directory               *
           ************************************************************
------------------------------------------------------------------------------
                           ORCA GTO INTEGRAL CALCULATION
------------------------------------------------------------------------------

                         BASIS SET STATISTICS AND STARTUP INFO

 # of primitive gaussian shells          ...   52
 # of primitive gaussian functions       ...  100
 # of contracted shells                  ...   20
 # of contracted basis functions         ...   60
 Highest angular momentum                ...    3
 Maximum contraction depth               ...    8
 Integral package used                   ... LIBINT
 Integral threshhold            Thresh   ...  2.500e-11
 Primitive cut-off              TCut     ...  2.500e-12


------------------------------ INTEGRAL EVALUATION ----------------------------


 * One electron integrals 
 Pre-screening matrix                    ... done
 Shell pair data                         ... done (   0.000 sec)



           ************************************************************
           *        Program running with 4 parallel MPI-processes     *
           *              working on a common directory               *
           ************************************************************
-------------------------------------------------------------------------------
                                 ORCA SCF
-------------------------------------------------------------------------------

------------
SCF SETTINGS
------------
Hamiltonian:
 Density Functional     Method          .... DFT(GTOs)
 Exchange Functional    Exchange        .... B88
   X-Alpha parameter    XAlpha          ....  0.666667
   Becke's b parameter  XBeta           ....  0.004200
 Correlation Functional Correlation     .... LYP
 LDA part of GGA corr.  LDAOpt          .... VWN-5
 Gradients option       PostSCFGGA      .... off
 Hybrid DFT is turned on
   Fraction HF Exchange ScalHFX         ....  0.200000
   Scaling of DF-GGA-X  ScalDFX         ....  0.720000
   Scaling of DF-GGA-C  ScalDFC         ....  0.810000
   Scaling of DF-LDA-C  ScalLDAC        ....  1.000000
   Perturbative correction              ....  0.000000
   Density functional embedding theory  .... OFF
   NL short-range parameter             ....  4.800000


General Settings:
 Integral files         IntName         .... carbon_monoxide_B3LYP_cc-pVTZ_OPT
 Hartree-Fock type      HFTyp           .... RHF
 Total Charge           Charge          ....    0
 Multiplicity           Mult            ....    1
 Number of Electrons    NEL             ....   14
 Basis Dimension        Dim             ....   60
 Nuclear Repulsion      ENuc            ....     22.5518064500 Eh

Convergence Acceleration:
 DIIS                   CNVDIIS         .... on
   Start iteration      DIISMaxIt       ....    12
   Startup error        DIISStart       ....  0.200000
   # of expansion vecs  DIISMaxEq       ....     5
   Bias factor          DIISBfac        ....   1.050
   Max. coefficient     DIISMaxC        ....  10.000
 Newton-Raphson         CNVNR           .... off
 SOSCF                  CNVSOSCF        .... on
   Start iteration      SOSCFMaxIt      ....   150
   Startup grad/error   SOSCFStart      ....  0.003300
 Level Shifting         CNVShift        .... on
   Level shift para.    LevelShift      ....    0.2500
   Turn off err/grad.   ShiftErr        ....    0.0010
 Zerner damping         CNVZerner       .... off
 Static damping         CNVDamp         .... on
   Fraction old density DampFac         ....    0.7000
   Max. Damping (<1)    DampMax         ....    0.9800
   Min. Damping (>=0)   DampMin         ....    0.0000
   Turn off err/grad.   DampErr         ....    0.1000
 Fernandez-Rico         CNVRico         .... off

SCF Procedure:
 Maximum # iterations   MaxIter         ....   125
 SCF integral mode      SCFMode         .... Direct
   Integral package                     .... LIBINT
 Reset frequency        DirectResetFreq ....    20
 Integral Threshold     Thresh          ....  2.500e-11 Eh
 Primitive CutOff       TCut            ....  2.500e-12 Eh

Convergence Tolerance:
 Convergence Check Mode ConvCheckMode   .... Total+1el-Energy
 Convergence forced     ConvForced      .... 0
 Energy Change          TolE            ....  1.000e-08 Eh
 1-El. energy change                    ....  1.000e-05 Eh
 Orbital Gradient       TolG            ....  1.000e-05
 Orbital Rotation angle TolX            ....  1.000e-05
 DIIS Error             TolErr          ....  5.000e-07


Diagonalization of the overlap matrix:
Smallest eigenvalue                        ... 3.002e-03
Time for diagonalization                   ...    0.001 sec
Threshold for overlap eigenvalues          ... 1.000e-08
Number of eigenvalues below threshold      ... 0
Time for construction of square roots      ...    0.000 sec
Total time needed                          ...    0.001 sec

---------------------
INITIAL GUESS: MOREAD
---------------------
Guess MOs are being read from file: carbon_monoxide_B3LYP_cc-pVTZ_OPT.gbw
Input Geometry matches current geometry (good)
Input basis set matches current basis set (good)
MOs were renormalized
MOs were reorthogonalized (Cholesky)
                      ------------------
                      INITIAL GUESS DONE (   0.0 sec)
                      ------------------
-------------------
DFT GRID GENERATION
-------------------

General Integration Accuracy     IntAcc      ...  4.340
Radial Grid Type                 RadialGrid  ... Gauss-Chebyshev
Angular Grid (max. acc.)         AngularGrid ... Lebedev-110
Angular grid pruning method      GridPruning ... 3 (G Style)
Weight generation scheme         WeightScheme... Becke
Basis function cutoff            BFCut       ...    1.0000e-11
Integration weight cutoff        WCut        ...    1.0000e-14
Grids for H and He will be reduced by one unit

# of grid points (after initial pruning)     ...   3372 (   0.0 sec)
# of grid points (after weights+screening)   ...   3345 (   0.0 sec)
nearest neighbour list constructed           ...    0.0 sec
Grid point re-assignment to atoms done       ...    0.0 sec
Grid point division into batches done        ...    0.0 sec
Reduced shell lists constructed in    0.0 sec

Total number of grid points                  ...     3345
Total number of batches                      ...       54
Average number of points per batch           ...       61
Average number of grid points per atom       ...     1672
Average number of shells per batch           ...    15.60 (78.00%)
Average number of basis functions per batch  ...    45.73 (76.22%)
Average number of large shells per batch     ...    13.07 (83.76%)
Average number of large basis fcns per batch ...    38.13 (83.38%)
Maximum spatial batch extension              ...  16.32, 23.60, 31.36 au
Average spatial batch extension              ...   2.73,  3.07,  3.45 au

Time for grid setup =    0.008 sec

--------------
SCF ITERATIONS
--------------
ITER       Energy         Delta-E        Max-DP      RMS-DP      [F,P]     Damp
               ***  Starting incremental Fock matrix formation  ***
                      *** Initiating the SOSCF procedure ***
                      *** Re-Reading the Fockian *** 
                      *** Removing any level shift *** 
ITER      Energy       Delta-E        Grad      Rot      Max-DP    RMS-DP
  0   -113.30502608 -113.3050260798  0.000009  0.000009  0.000011  0.000001
               *** Restarting incremental Fock matrix formation ***
  1   -113.30502608  -0.0000000008  0.000004  0.000008  0.000011  0.000000
  2   -113.30502608   0.0000000003  0.000009  0.000006  0.000004  0.000000
                  ***Gradient check signals convergence***
              ***Rediagonalizing the Fockian in SOSCF/NRSCF***

               *****************************************************
               *                     SUCCESS                       *
               *           SCF CONVERGED AFTER   3 CYCLES          *
               *****************************************************

Setting up the final grid:

General Integration Accuracy     IntAcc      ...  4.670
Radial Grid Type                 RadialGrid  ... Gauss-Chebyshev
Angular Grid (max. acc.)         AngularGrid ... Lebedev-302
Angular grid pruning method      GridPruning ... 3 (G Style)
Weight generation scheme         WeightScheme... Becke
Basis function cutoff            BFCut       ...    1.0000e-11
Integration weight cutoff        WCut        ...    1.0000e-14
Grids for H and He will be reduced by one unit

# of grid points (after initial pruning)     ...  12424 (   0.0 sec)
# of grid points (after weights+screening)   ...  12393 (   0.0 sec)
nearest neighbour list constructed           ...    0.0 sec
Grid point re-assignment to atoms done       ...    0.0 sec
Grid point division into batches done        ...    0.0 sec
Reduced shell lists constructed in    0.0 sec

Total number of grid points                  ...    12393
Total number of batches                      ...      195
Average number of points per batch           ...       63
Average number of grid points per atom       ...     6196
Average number of shells per batch           ...    12.12 (60.60%)
Average number of basis functions per batch  ...    35.36 (58.93%)
Average number of large shells per batch     ...     9.92 (81.85%)
Average number of large basis fcns per batch ...    28.44 (80.43%)
Maximum spatial batch extension              ...  15.75, 24.37, 22.15 au
Average spatial batch extension              ...   1.67,  1.86,  1.82 au

Final grid set up in    0.1 sec
Final integration                            ... done (   0.0 sec)
Change in XC energy                          ...     0.000008326
Integrated number of electrons               ...    13.999994171
Previous integrated no of electrons          ...    14.000010631

----------------
TOTAL SCF ENERGY
----------------

Total Energy       :         -113.30501775 Eh           -3083.18628 eV

Components:
Nuclear Repulsion  :           22.55180645 Eh             613.66585 eV
Electronic Energy  :         -135.85682420 Eh           -3696.85213 eV
One Electron Energy:         -198.46140339 Eh           -5400.40934 eV
Two Electron Energy:           62.60457919 Eh            1703.55721 eV

Virial components:
Potential Energy   :         -225.99978443 Eh           -6149.76678 eV
Kinetic Energy     :          112.69476668 Eh            3066.58050 eV
Virial Ratio       :            2.00541508


DFT components:
N(Alpha)           :        6.999997085689 electrons
N(Beta)            :        6.999997085689 electrons
N(Total)           :       13.999994171379 electrons
E(X)               :      -10.608352287011 Eh       
E(C)               :       -0.573743370041 Eh       
E(XC)              :      -11.182095657052 Eh       
DFET-embed. en.    :        0.000000000000 Eh       

---------------
SCF CONVERGENCE
---------------

  Last Energy change         ...   -3.2485e-10  Tolerance :   1.0000e-08
  Last MAX-Density change    ...    6.7184e-06  Tolerance :   1.0000e-07
  Last RMS-Density change    ...    1.5790e-07  Tolerance :   5.0000e-09
  Last Orbital Gradient      ...    1.0884e-06  Tolerance :   1.0000e-05
  Last Orbital Rotation      ...    1.6973e-06  Tolerance :   1.0000e-05

             **** THE GBW FILE WAS UPDATED (carbon_monoxide_B3LYP_cc-pVTZ_OPT.gbw) ****
             **** DENSITY FILE WAS UPDATED (carbon_monoxide_B3LYP_cc-pVTZ_OPT.scfp) ****
             **** ENERGY FILE WAS UPDATED (carbon_monoxide_B3LYP_cc-pVTZ_OPT.en.tmp) ****
             **** THE GBW FILE WAS UPDATED (carbon_monoxide_B3LYP_cc-pVTZ_OPT.gbw) ****
             **** DENSITY FILE WAS UPDATED (carbon_monoxide_B3LYP_cc-pVTZ_OPT.scfp) ****
----------------
ORBITAL ENERGIES
----------------

  NO   OCC          E(Eh)            E(eV) 
   0   2.0000     -19.235542      -523.4257 
   1   2.0000     -10.290317      -280.0138 
   2   2.0000      -1.168194       -31.7882 
   3   2.0000      -0.578450       -15.7404 
   4   2.0000      -0.479327       -13.0432 
   5   2.0000      -0.479327       -13.0432 
   6   2.0000      -0.380096       -10.3429 
   7   0.0000      -0.029791        -0.8107 
   8   0.0000      -0.029791        -0.8107 
   9   0.0000       0.160257         4.3608 
  10   0.0000       0.290279         7.8989 
  11   0.0000       0.290279         7.8989 
  12   0.0000       0.305603         8.3159 
  13   0.0000       0.538911        14.6645 
  14   0.0000       0.602596        16.3975 
  15   0.0000       0.614934        16.7332 
  16   0.0000       0.614934        16.7332 
  17   0.0000       0.636342        17.3157 
  18   0.0000       0.636629        17.3235 
  19   0.0000       0.858437        23.3593 
  20   0.0000       0.858437        23.3593 
  21   0.0000       1.113820        30.3086 
  22   0.0000       1.312450        35.7136 
  23   0.0000       1.499506        40.8036 
  24   0.0000       1.499570        40.8054 
  25   0.0000       1.873299        50.9751 
  26   0.0000       1.873299        50.9751 
  27   0.0000       1.925808        52.4039 
  28   0.0000       1.983397        53.9710 
  29   0.0000       1.983397        53.9710 
  30   0.0000       2.433645        66.2228 
  31   0.0000       2.633737        71.6676 
  32   0.0000       2.633737        71.6676 
  33   0.0000       2.809847        76.4598 
  34   0.0000       2.809956        76.4628 
  35   0.0000       2.930088        79.7318 
  36   0.0000       2.930784        79.7507 
  37   0.0000       2.962061        80.6018 
  38   0.0000       2.962061        80.6018 
  39   0.0000       3.090816        84.1054 
  40   0.0000       3.222778        87.6962 
  41   0.0000       3.222778        87.6962 
  42   0.0000       3.366018        91.5940 
  43   0.0000       4.056613       110.3860 
  44   0.0000       4.056613       110.3860 
  45   0.0000       4.421990       120.3285 
  46   0.0000       5.070433       137.9735 
  47   0.0000       5.070433       137.9735 
  48   0.0000       5.472811       148.9228 
  49   0.0000       5.475086       148.9847 
  50   0.0000       6.095973       165.8799 
  51   0.0000       6.216840       169.1688 
  52   0.0000       6.218963       169.2266 
  53   0.0000       6.225981       169.4176 
  54   0.0000       6.225981       169.4176 
  55   0.0000       6.721997       182.9149 
  56   0.0000       6.721997       182.9149 
  57   0.0000       6.728547       183.0931 
  58   0.0000       6.982759       190.0105 
  59   0.0000      12.220345       332.5325 

                    ********************************
                    * MULLIKEN POPULATION ANALYSIS *
                    ********************************

-----------------------
MULLIKEN ATOMIC CHARGES
-----------------------
   0 C :   -0.027640
   1 O :    0.027640
Sum of atomic charges:    0.0000000

--------------------------------
MULLIKEN REDUCED ORBITAL CHARGES
--------------------------------
  0 C s       :     3.885669  s :     3.885669
      pz      :     0.521432  p :     2.014601
      px      :     0.971736
      py      :     0.521432
      dz2     :     0.009503  d :     0.114751
      dxz     :     0.038369
      dyz     :     0.000000
      dx2y2   :     0.028510
      dxy     :     0.038369
      f0      :     0.001736  f :     0.012618
      f+1     :     0.001259
      f-1     :     0.000289
      f+2     :     0.002894
      f-2     :     0.000000
      f+3     :     0.002099
      f-3     :     0.004341
  1 O s       :     3.678413  s :     3.678413
      pz      :     1.422941  p :     4.258444
      px      :     1.412561
      py      :     1.422941
      dz2     :     0.002385  d :     0.033155
      dxz     :     0.011808
      dyz     :     0.000000
      dx2y2   :     0.007154
      dxy     :     0.011808
      f0      :     0.000309  f :     0.002348
      f+1     :     0.000266
      f-1     :     0.000050
      f+2     :     0.000511
      f-2     :     0.000000
      f+3     :     0.000443
      f-3     :     0.000769


                     *******************************
                     * LOEWDIN POPULATION ANALYSIS *
                     *******************************

----------------------
LOEWDIN ATOMIC CHARGES
----------------------
   0 C :   -0.333590
   1 O :    0.333590

-------------------------------
LOEWDIN REDUCED ORBITAL CHARGES
-------------------------------
  0 C s       :     3.524319  s :     3.524319
      pz      :     0.564062  p :     2.382058
      px      :     1.253934
      py      :     0.564062
      dz2     :     0.038988  d :     0.339169
      dxz     :     0.091609
      dyz     :     0.000000
      dx2y2   :     0.116963
      dxy     :     0.091609
      f0      :     0.011108  f :     0.088044
      f+1     :     0.010802
      f-1     :     0.001851
      f+2     :     0.018512
      f-2     :     0.000000
      f+3     :     0.018003
      f-3     :     0.027768
  1 O s       :     3.390464  s :     3.390464
      pz      :     1.303746  p :     4.212947
      px      :     1.605454
      py      :     1.303746
      dz2     :     0.009482  d :     0.057813
      dxz     :     0.009943
      dyz     :     0.000000
      dx2y2   :     0.028445
      dxy     :     0.009943
      f0      :     0.000383  f :     0.005185
      f+1     :     0.001180
      f-1     :     0.000063
      f+2     :     0.000636
      f-2     :     0.000000
      f+3     :     0.001967
      f-3     :     0.000956


                      *****************************
                      * MAYER POPULATION ANALYSIS *
                      *****************************

  NA   - Mulliken gross atomic population
  ZA   - Total nuclear charge
  QA   - Mulliken gross atomic charge
  VA   - Mayer's total valence
  BVA  - Mayer's bonded valence
  FA   - Mayer's free valence

  ATOM       NA         ZA         QA         VA         BVA        FA
  0 C      6.0276     6.0000    -0.0276     2.5363     2.5363    -0.0000
  1 O      7.9724     8.0000     0.0276     2.5363     2.5363    -0.0000

  Mayer bond orders larger than 0.100000
B(  0-C ,  1-O ) :   2.5363 

-------
TIMINGS
-------

Total SCF time: 0 days 0 hours 0 min 0 sec 

Total time                  ....       0.820 sec
Sum of individual times     ....       0.638 sec  ( 77.8%)

Fock matrix formation       ....       0.576 sec  ( 70.3%)
  XC integration            ....       0.025 sec  (  4.3% of F)
    Basis function eval.    ....       0.008 sec  ( 32.8% of XC)
    Density eval.           ....       0.004 sec  ( 14.8% of XC)
    XC-Functional eval.     ....       0.003 sec  ( 11.7% of XC)
    XC-Potential eval.      ....       0.007 sec  ( 26.6% of XC)
Diagonalization             ....       0.000 sec  (  0.0%)
Density matrix formation    ....       0.000 sec  (  0.0%)
Population analysis         ....       0.001 sec  (  0.1%)
Initial guess               ....       0.001 sec  (  0.1%)
Orbital Transformation      ....       0.000 sec  (  0.0%)
Orbital Orthonormalization  ....       0.000 sec  (  0.0%)
DIIS solution               ....       0.000 sec  (  0.0%)
SOSCF solution              ....       0.001 sec  (  0.1%)
Grid generation             ....       0.059 sec  (  7.2%)

-------------------------   --------------------
FINAL SINGLE POINT ENERGY      -113.305017754256
-------------------------   --------------------

                                *** OPTIMIZATION RUN DONE ***

                            ***************************************
                            *     ORCA property calculations      *
                            ***************************************

                                    ---------------------
                                    Active property flags
                                    ---------------------
   (+) Dipole Moment


------------------------------------------------------------------------------
                       ORCA ELECTRIC PROPERTIES CALCULATION
------------------------------------------------------------------------------

Dipole Moment Calculation                       ... on
Quadrupole Moment Calculation                   ... off
Polarizability Calculation                      ... off
GBWName                                         ... carbon_monoxide_B3LYP_cc-pVTZ_OPT.gbw
Electron density file                           ... carbon_monoxide_B3LYP_cc-pVTZ_OPT.scfp
The origin for moment calculation is the CENTER OF MASS  = (-51.463193, 22.991674  0.000000)

-------------
DIPOLE MOMENT
-------------
                                X             Y             Z
Electronic contribution:      0.04243      -0.00000      -0.00000
Nuclear contribution   :      0.00714       0.00000       0.00000
                        -----------------------------------------
Total Dipole Moment    :      0.04957      -0.00000      -0.00000
                        -----------------------------------------
Magnitude (a.u.)       :      0.04957
Magnitude (Debye)      :      0.12600



--------------------
Rotational spectrum 
--------------------
 
Rotational constants in cm-1:     0.000000     1.936939     1.936939 
Rotational constants in MHz :     0.000000 58067.969779 58067.969779 

 Dipole components along the rotational axes: 
x,y,z [a.u.] :    -0.049570    -0.000000    -0.000000 
x,y,z [Debye]:    -0.125998    -0.000000    -0.000000 

 

Timings for individual modules:

Sum of individual times         ...        8.621 sec (=   0.144 min)
GTO integral calculation        ...        1.362 sec (=   0.023 min)  15.8 %
SCF iterations                  ...        5.561 sec (=   0.093 min)  64.5 %
SCF Gradient evaluation         ...        1.638 sec (=   0.027 min)  19.0 %
Geometry relaxation             ...        0.060 sec (=   0.001 min)   0.7 %
                             ****ORCA TERMINATED NORMALLY****
TOTAL RUN TIME: 0 days 0 hours 0 minutes 8 seconds 827 msec
