
                                 *****************
                                 * O   R   C   A *
                                 *****************

                                            #,                                       
                                            ###                                      
                                            ####                                     
                                            #####                                    
                                            ######                                   
                                           ########,                                 
                                     ,,################,,,,,                         
                               ,,#################################,,                 
                          ,,##########################################,,             
                       ,#########################################, ''#####,          
                    ,#############################################,,   '####,        
                  ,##################################################,,,,####,       
                ,###########''''           ''''###############################       
              ,#####''   ,,,,##########,,,,          '''####'''          '####       
            ,##' ,,,,###########################,,,                        '##       
           ' ,,###''''                  '''############,,,                           
         ,,##''                                '''############,,,,        ,,,,,,###''
      ,#''                                            '''#######################'''  
     '                                                          ''''####''''         
             ,#######,   #######,   ,#######,      ##                                
            ,#'     '#,  ##    ##  ,#'     '#,    #''#        ######   ,####,        
            ##       ##  ##   ,#'  ##            #'  '#       #        #'  '#        
            ##       ##  #######   ##           ,######,      #####,   #    #        
            '#,     ,#'  ##    ##  '#,     ,#' ,#      #,         ##   #,  ,#        
             '#######'   ##     ##  '#######'  #'      '#     #####' # '####'        



                  #######################################################
                  #                        -***-                        #
                  #          Department of theory and spectroscopy      #
                  #    Directorship and core code : Frank Neese         #
                  #        Max Planck Institute fuer Kohlenforschung    #
                  #                Kaiser Wilhelm Platz 1               #
                  #                 D-45470 Muelheim/Ruhr               #
                  #                      Germany                        #
                  #                                                     #
                  #                  All rights reserved                #
                  #                        -***-                        #
                  #######################################################


                         Program Version 5.0.1 -  RELEASE  -


 With contributions from (in alphabetic order):
   Daniel Aravena         : Magnetic Suceptibility
   Michael Atanasov       : Ab Initio Ligand Field Theory (pilot matlab implementation)
   Alexander A. Auer      : GIAO ZORA, VPT2 properties, NMR spectrum
   Ute Becker             : Parallelization
   Giovanni Bistoni       : ED, misc. LED, open-shell LED, HFLD
   Martin Brehm           : Molecular dynamics
   Dmytro Bykov           : SCF Hessian
   Vijay G. Chilkuri      : MRCI spin determinant printing, contributions to CSF-ICE
   Dipayan Datta          : RHF DLPNO-CCSD density
   Achintya Kumar Dutta   : EOM-CC, STEOM-CC
   Dmitry Ganyushin       : Spin-Orbit,Spin-Spin,Magnetic field MRCI
   Miquel Garcia          : C-PCM and meta-GGA Hessian, CC/C-PCM, Gaussian charge scheme
   Yang Guo               : DLPNO-NEVPT2, F12-NEVPT2, CIM, IAO-localization
   Andreas Hansen         : Spin unrestricted coupled pair/coupled cluster methods
   Benjamin Helmich-Paris : MC-RPA, TRAH-SCF, COSX integrals
   Lee Huntington         : MR-EOM, pCC
   Robert Izsak           : Overlap fitted RIJCOSX, COSX-SCS-MP3, EOM
   Marcus Kettner         : VPT2
   Christian Kollmar      : KDIIS, OOCD, Brueckner-CCSD(T), CCSD density, CASPT2, CASPT2-K
   Simone Kossmann        : Meta GGA functionals, TD-DFT gradient, OOMP2, MP2 Hessian
   Martin Krupicka        : Initial AUTO-CI
   Lucas Lang             : DCDCAS
   Marvin Lechner         : AUTO-CI (C++ implementation), FIC-MRCC
   Dagmar Lenk            : GEPOL surface, SMD
   Dimitrios Liakos       : Extrapolation schemes; Compound Job, initial MDCI parallelization
   Dimitrios Manganas     : Further ROCIS development; embedding schemes
   Dimitrios Pantazis     : SARC Basis sets
   Anastasios Papadopoulos: AUTO-CI, single reference methods and gradients
   Taras Petrenko         : DFT Hessian,TD-DFT gradient, ASA, ECA, R-Raman, ABS, FL, XAS/XES, NRVS
   Peter Pinski           : DLPNO-MP2, DLPNO-MP2 Gradient
   Christoph Reimann      : Effective Core Potentials
   Marius Retegan         : Local ZFS, SOC
   Christoph Riplinger    : Optimizer, TS searches, QM/MM, DLPNO-CCSD(T), (RO)-DLPNO pert. Triples
   Tobias Risthaus        : Range-separated hybrids, TD-DFT gradient, RPA, STAB
   Michael Roemelt        : Original ROCIS implementation
   Masaaki Saitow         : Open-shell DLPNO-CCSD energy and density
   Barbara Sandhoefer     : DKH picture change effects
   Avijit Sen             : IP-ROCIS
   Kantharuban Sivalingam : CASSCF convergence, NEVPT2, FIC-MRCI
   Bernardo de Souza      : ESD, SOC TD-DFT
   Georgi Stoychev        : AutoAux, RI-MP2 NMR, DLPNO-MP2 response
   Willem Van den Heuvel  : Paramagnetic NMR
   Boris Wezisla          : Elementary symmetry handling
   Frank Wennmohs         : Technical directorship


 We gratefully acknowledge several colleagues who have allowed us to
 interface, adapt or use parts of their codes:
   Stefan Grimme, W. Hujo, H. Kruse, P. Pracht,  : VdW corrections, initial TS optimization,
                  C. Bannwarth, S. Ehlert          DFT functionals, gCP, sTDA/sTD-DF
   Ed Valeev, F. Pavosevic, A. Kumar             : LibInt (2-el integral package), F12 methods
   Garnet Chan, S. Sharma, J. Yang, R. Olivares  : DMRG
   Ulf Ekstrom                                   : XCFun DFT Library
   Mihaly Kallay                                 : mrcc  (arbitrary order and MRCC methods)
   Jiri Pittner, Ondrej Demel                    : Mk-CCSD
   Frank Weinhold                                : gennbo (NPA and NBO analysis)
   Christopher J. Cramer and Donald G. Truhlar   : smd solvation model
   Lars Goerigk                                  : TD-DFT with DH, B97 family of functionals
   V. Asgeirsson, H. Jonsson                     : NEB implementation
   FAccTs GmbH                                   : IRC, NEB, NEB-TS, DLPNO-Multilevel, CI-OPT
                                                   MM, QMMM, 2- and 3-layer-ONIOM, Crystal-QMMM,
                                                   LR-CPCM, SF, NACMEs, symmetry and pop. for TD-DFT,
                                                   nearIR, NL-DFT gradient (VV10), updates on ESD,
                                                   ML-optimized integration grids
   S Lehtola, MJT Oliveira, MAL Marques          : LibXC Library
   Liviu Ungur et al                             : ANISO software


 Your calculation uses the libint2 library for the computation of 2-el integrals
 For citations please refer to: http://libint.valeyev.net

 Your ORCA version has been built with support for libXC version: 5.1.0
 For citations please refer to: https://tddft.org/programs/libxc/

 This ORCA versions uses:
   CBLAS   interface :  Fast vector & matrix operations
   LAPACKE interface :  Fast linear algebra routines
   SCALAPACK package :  Parallel linear algebra routines
   Shared memory     :  Shared parallel matrices
   BLAS/LAPACK       :  OpenBLAS 0.3.15  USE64BITINT DYNAMIC_ARCH NO_AFFINITY Zen SINGLE_THREADED
        Core in use  :  Zen
   Copyright (c) 2011-2014, The OpenBLAS Project




***************************************
The coordinates will be read from file: acetaldehyde.xyz
***************************************


================================================================================

----- Orbital basis set information -----
Your calculation utilizes the basis: aug-cc-pVTZ 
    H, B-Ne : Obtained from the ccRepo (grant-hill.group.shef.ac.uk/ccrepo) Feb. 2017
              R. A. Kendall, T. H. Dunning, Jr., R. J. Harrison, J. Chem. Phys. 96, 6796 (1992)
         He : Obtained from the ccRepo (grant-hill.group.shef.ac.uk/ccrepo) Feb. 2017
              D. E. Woon, T. H. Dunning, Jr., J. Chem. Phys. 100, 2975 (1994)
  Li-Be, Na : Obtained from the ccRepo (grant-hill.group.shef.ac.uk/ccrepo) Feb. 2017
              B. P. Prascher, D. E. Woon, K. A. Peterson, T. H. Dunning, Jr., A. K. Wilson, Theor. Chem. Acc. 128, 69 (2011)
         Mg : Obtained from the Peterson Research Group Website (tyr0.chem.wsu.edu/~kipeters) Feb. 2017
              B. P. Prascher, D. E. Woon, K. A. Peterson, T. H. Dunning, Jr., A. K. Wilson, Theor. Chem. Acc. 128, 69 (2011)
      Al-Ar : Obtained from the ccRepo (grant-hill.group.shef.ac.uk/ccrepo) Feb. 2017
              D. E. Woon, T. H. Dunning, Jr., J. Chem. Phys. 98, 1358 (1993)
      Sc-Zn : Obtained from the ccRepo (grant-hill.group.shef.ac.uk/ccrepo) Feb. 2017
              N. B. Balabanov, K. A. Peterson, J. Chem. Phys. 123, 064107 (2005)
              N. B. Balabanov, K. A. Peterson, J. Chem. Phys. 125, 074110 (2006)
      Ga-Kr : Obtained from the ccRepo (grant-hill.group.shef.ac.uk/ccrepo) Feb. 2017
              A. K. Wilson, D. E. Woon, K. A. Peterson, T. H. Dunning, Jr., J. Chem. Phys. 110, 7667 (1999)
     Ag, Au : Obtained from the Peterson Research Group Website (tyr0.chem.wsu.edu/~kipeters) Feb. 2017
              K. A. Peterson, C. Puzzarini, Theor. Chem. Acc. 114, 283 (2005)

----- AuxJ basis set information -----
Your calculation utilizes the auxiliary basis: def2/J
   F. Weigend, Phys. Chem. Chem. Phys. 8, 1057 (2006).

================================================================================
                                        WARNINGS
                       Please study these warnings very carefully!
================================================================================


INFO   : the flag for use of the SHARK integral package has been found!

================================================================================
                                       INPUT FILE
================================================================================
NAME = acetaldehyde_B3LYP.inp
|  1> 
|  2> %pal
|  3>   nprocs 6
|  4> end
|  5> %maxcore 2000
|  6> 
|  7> ! B3LYP aug-cc-pVTZ VeryTightSCF
|  8> ! RIJCOSX def2/J
|  9> 
| 10> * xyzfile 0 1 acetaldehyde.xyz
| 11> 
| 12> 
| 13>                          ****END OF INPUT****
================================================================================

                       ****************************
                       * Single Point Calculation *
                       ****************************

---------------------------------
CARTESIAN COORDINATES (ANGSTROEM)
---------------------------------
  C      1.441762   -0.020280   -0.257814
  C     -0.037836    0.035108   -0.055494
  O     -0.728246    0.982027   -0.313173
  H      1.812983    0.916060   -0.671732
  H      1.931960   -0.232329    0.697630
  H      1.686979   -0.852469   -0.925179
  H     -0.490353   -0.889736    0.366481

----------------------------
CARTESIAN COORDINATES (A.U.)
----------------------------
  NO LB      ZA    FRAG     MASS         X           Y           Z
   0 C     6.0000    0    12.011    2.724536   -0.038324   -0.487197
   1 C     6.0000    0    12.011   -0.071499    0.066344   -0.104868
   2 O     8.0000    0    15.999   -1.376186    1.855761   -0.591811
   3 H     1.0000    0     1.008    3.426041    1.731103   -1.269390
   4 H     1.0000    0     1.008    3.650876   -0.439038    1.318330
   5 H     1.0000    0     1.008    3.187929   -1.610934   -1.748335
   6 H     1.0000    0     1.008   -0.926632   -1.681358    0.692549

--------------------------------
INTERNAL COORDINATES (ANGSTROEM)
--------------------------------
 C      0   0   0     0.000000000000     0.00000000     0.00000000
 C      1   0   0     1.494393250903     0.00000000     0.00000000
 O      2   1   0     1.199883538259   124.74162460     0.00000000
 H      1   2   3     1.088975139468   110.92258260     0.00000000
 H      1   2   3     1.094591788417   109.41497556   121.81705153
 H      1   2   3     1.094553092415   109.42315614   238.19124253
 H      2   1   3     1.112731610462   115.03563910   180.00501406

---------------------------
INTERNAL COORDINATES (A.U.)
---------------------------
 C      0   0   0     0.000000000000     0.00000000     0.00000000
 C      1   0   0     2.823993980587     0.00000000     0.00000000
 O      2   1   0     2.267451279910   124.74162460     0.00000000
 H      1   2   3     2.057864780243   110.92258260     0.00000000
 H      1   2   3     2.068478708548   109.41497556   121.81705153
 H      1   2   3     2.068405583701   109.42315614   238.19124253
 H      2   1   3     2.102758004329   115.03563910   180.00501406

---------------------
BASIS SET INFORMATION
---------------------
There are 3 groups of distinct atoms

 Group   1 Type C   : 19s6p3d2f contracted to 5s4p3d2f pattern {88111/3111/111/11}
 Group   2 Type O   : 19s6p3d2f contracted to 5s4p3d2f pattern {88111/3111/111/11}
 Group   3 Type H   : 6s3p2d contracted to 4s3p2d pattern {3111/111/11}

Atom   0C    basis set group =>   1
Atom   1C    basis set group =>   1
Atom   2O    basis set group =>   2
Atom   3H    basis set group =>   3
Atom   4H    basis set group =>   3
Atom   5H    basis set group =>   3
Atom   6H    basis set group =>   3
---------------------------------
AUXILIARY/J BASIS SET INFORMATION
---------------------------------
There are 3 groups of distinct atoms

 Group   1 Type C   : 12s5p4d2f1g contracted to 6s4p3d1f1g pattern {711111/2111/211/2/1}
 Group   2 Type O   : 12s5p4d2f1g contracted to 6s4p3d1f1g pattern {711111/2111/211/2/1}
 Group   3 Type H   : 5s2p1d contracted to 3s1p1d pattern {311/2/1}

Atom   0C    basis set group =>   1
Atom   1C    basis set group =>   1
Atom   2O    basis set group =>   2
Atom   3H    basis set group =>   3
Atom   4H    basis set group =>   3
Atom   5H    basis set group =>   3
Atom   6H    basis set group =>   3


           ************************************************************
           *        Program running with 6 parallel MPI-processes     *
           *              working on a common directory               *
           ************************************************************
------------------------------------------------------------------------------
                           ORCA GTO INTEGRAL CALCULATION
                           -- RI-GTO INTEGRALS CHOSEN --
------------------------------------------------------------------------------
------------------------------------------------------------------------------
                   ___                                                        
                  /   \      - P O W E R E D   B Y -                         
                 /     \                                                     
                 |  |  |   _    _      __       _____    __    __             
                 |  |  |  | |  | |    /  \     |  _  \  |  |  /  |          
                  \  \/   | |  | |   /    \    | | | |  |  | /  /          
                 / \  \   | |__| |  /  /\  \   | |_| |  |  |/  /          
                |  |  |   |  __  | /  /__\  \  |    /   |      \           
                |  |  |   | |  | | |   __   |  |    \   |  |\   \          
                \     /   | |  | | |  |  |  |  | |\  \  |  | \   \       
                 \___/    |_|  |_| |__|  |__|  |_| \__\ |__|  \__/        
                                                                              
                      - O R C A' S   B I G   F R I E N D -                    
                                      &                                       
                       - I N T E G R A L  F E E D E R -                       
                                                                              
 v1 FN, 2020, v2 2021                                                         
------------------------------------------------------------------------------


Reading SHARK input file acetaldehyde_B3LYP.SHARKINP.tmp ... ok
----------------------
SHARK INTEGRAL PACKAGE
----------------------

Number of atoms                             ...      7
Number of basis functions                   ...    230
Number of shells                            ...     78
Maximum angular momentum                    ...      3
Integral batch strategy                     ... SHARK/LIBINT Hybrid
RI-J (if used) integral strategy            ... SPLIT-RIJ (Revised 2003 algorithm where possible)
Printlevel                                  ...      1
Contraction scheme used                     ... SEGMENTED contraction
Coulomb Range Separation                    ... NOT USED
Exchange Range Separation                   ... NOT USED
Finite Nucleus Model                        ... NOT USED
Auxiliary Coulomb fitting basis             ... AVAILABLE
   # of basis functions in Aux-J            ...    191
   # of shells in Aux-J                     ...     65
   Maximum angular momentum in Aux-J        ...      4
Auxiliary J/K fitting basis                 ... NOT available
Auxiliary Correlation fitting basis         ... NOT available
Auxiliary 'external' fitting basis          ... NOT available
Integral threshold                          ...     1.000000e-12
Primitive cut-off                           ...     1.000000e-14
Primitive pair pre-selection threshold      ...     1.000000e-14

Calculating pre-screening integrals         ... done (  0.1 sec) Dimension = 78
Organizing shell pair data                  ... done (  0.0 sec)
Shell pair information
Total number of shell pairs                 ...      3081
Shell pairs after pre-screening             ...      3081
Total number of primitive shell pairs       ...      9234
Primitive shell pairs kept                  ...      8192
          la=0 lb=0:    496 shell pairs
          la=1 lb=0:    744 shell pairs
          la=1 lb=1:    300 shell pairs
          la=2 lb=0:    527 shell pairs
          la=2 lb=1:    408 shell pairs
          la=2 lb=2:    153 shell pairs
          la=3 lb=0:    186 shell pairs
          la=3 lb=1:    144 shell pairs
          la=3 lb=2:    102 shell pairs
          la=3 lb=3:     21 shell pairs

Calculating one electron integrals          ... done (  0.0 sec)
Calculating RI/J V-Matrix + Cholesky decomp.... done (  0.0 sec)
Calculating Nuclear repulsion               ... done (  0.0 sec) ENN=     69.996570359785 Eh

SHARK setup successfully completed in   0.1 seconds

Maximum memory used throughout the entire GTOINT-calculation: 17.3 MB


           ************************************************************
           *        Program running with 6 parallel MPI-processes     *
           *              working on a common directory               *
           ************************************************************
-------------------------------------------------------------------------------
                                 ORCA SCF
-------------------------------------------------------------------------------

------------
SCF SETTINGS
------------
Hamiltonian:
 Density Functional     Method          .... DFT(GTOs)
 Exchange Functional    Exchange        .... B88
   X-Alpha parameter    XAlpha          ....  0.666667
   Becke's b parameter  XBeta           ....  0.004200
 Correlation Functional Correlation     .... LYP
 LDA part of GGA corr.  LDAOpt          .... VWN-5
 Gradients option       PostSCFGGA      .... off
 Hybrid DFT is turned on
   Fraction HF Exchange ScalHFX         ....  0.200000
   Scaling of DF-GGA-X  ScalDFX         ....  0.720000
   Scaling of DF-GGA-C  ScalDFC         ....  0.810000
   Scaling of DF-LDA-C  ScalLDAC        ....  1.000000
   Perturbative correction              ....  0.000000
   Density functional embedding theory  .... OFF
   NL short-range parameter             ....  4.800000
 RI-approximation to the Coulomb term is turned on
   Number of AuxJ basis functions       .... 191
   RIJ-COSX (HFX calculated with COS-X)).... on


General Settings:
 Integral files         IntName         .... acetaldehyde_B3LYP
 Hartree-Fock type      HFTyp           .... RHF
 Total Charge           Charge          ....    0
 Multiplicity           Mult            ....    1
 Number of Electrons    NEL             ....   24
 Basis Dimension        Dim             ....  230
 Nuclear Repulsion      ENuc            ....     69.9965703598 Eh

Convergence Acceleration:
 DIIS                   CNVDIIS         .... on
   Start iteration      DIISMaxIt       ....    12
   Startup error        DIISStart       ....  0.200000
   # of expansion vecs  DIISMaxEq       ....     5
   Bias factor          DIISBfac        ....   1.050
   Max. coefficient     DIISMaxC        ....  10.000
 Trust-Rad. Augm. Hess. CNVTRAH         .... auto
   Auto Start mean grad. ratio tolernc. ....  1.125000
   Auto Start start iteration           ....    20
   Auto Start num. interpolation iter.  ....    10
   Max. Number of Micro iterations      ....    16
   Max. Number of Macro iterations      .... Maxiter - #DIIS iter
   Number of Davidson start vectors     ....     2
   Converg. threshold I  (grad. norm)   ....   2.000e-06
   Converg. threshold II (energy diff.) ....   1.000e-09
   Grad. Scal. Fac. for Micro threshold ....   0.100
   Minimum threshold for Micro iter.    ....   0.010
   NR start threshold (gradient norm)   ....   0.001
   Initial trust radius                 ....   0.400
   Minimum AH scaling param. (alpha)    ....   1.000
   Maximum AH scaling param. (alpha)    .... 1000.000
   Orbital update algorithm             .... Taylor
   White noise on init. David. guess    .... on
   Maximum white noise                  ....   0.010
   Quad. conv. algorithm                .... NR
 SOSCF                  CNVSOSCF        .... on
   Start iteration      SOSCFMaxIt      ....   150
   Startup grad/error   SOSCFStart      ....  0.003300
 Level Shifting         CNVShift        .... on
   Level shift para.    LevelShift      ....    0.2500
   Turn off err/grad.   ShiftErr        ....    0.0010
 Zerner damping         CNVZerner       .... off
 Static damping         CNVDamp         .... on
   Fraction old density DampFac         ....    0.7000
   Max. Damping (<1)    DampMax         ....    0.9800
   Min. Damping (>=0)   DampMin         ....    0.0000
   Turn off err/grad.   DampErr         ....    0.1000
 Fernandez-Rico         CNVRico         .... off

SCF Procedure:
 Maximum # iterations   MaxIter         ....   125
 SCF integral mode      SCFMode         .... Direct
   Integral package                     .... SHARK and LIBINT hybrid scheme
 Reset frequency        DirectResetFreq ....    20
 Integral Threshold     Thresh          ....  1.000e-12 Eh
 Primitive CutOff       TCut            ....  1.000e-14 Eh

Convergence Tolerance:
 Convergence Check Mode ConvCheckMode   .... Total+1el-Energy
 Convergence forced     ConvForced      .... 0
 Energy Change          TolE            ....  1.000e-09 Eh
 1-El. energy change                    ....  1.000e-06 Eh
 Orbital Gradient       TolG            ....  2.000e-06
 Orbital Rotation angle TolX            ....  2.000e-06
 DIIS Error             TolErr          ....  1.000e-08


Diagonalization of the overlap matrix:
Smallest eigenvalue                        ... 2.998e-05
Time for diagonalization                   ...    0.005 sec
Threshold for overlap eigenvalues          ... 1.000e-08
Number of eigenvalues below threshold      ... 0
Time for construction of square roots      ...    0.002 sec
Total time needed                          ...    0.007 sec

Time for model grid setup =    0.033 sec

------------------------------
INITIAL GUESS: MODEL POTENTIAL
------------------------------
Loading Hartree-Fock densities                     ... done
Calculating cut-offs                               ... done
Initializing the effective Hamiltonian             ... done
Setting up the integral package (SHARK)            ... done
Starting the Coulomb interaction                   ... done (   0.0 sec)
Reading the grid                                   ... done
Mapping shells                                     ... done
Starting the XC term evaluation                    ... done (   0.0 sec)
  promolecular density results
     # of electrons  =     23.998107565
     EX              =    -19.633932423
     EC              =     -0.793004814
     EX+EC           =    -20.426937237
Transforming the Hamiltonian                       ... done (   0.0 sec)
Diagonalizing the Hamiltonian                      ... done (   0.0 sec)
Back transforming the eigenvectors                 ... done (   0.0 sec)
Now organizing SCF variables                       ... done
                      ------------------
                      INITIAL GUESS DONE (   0.1 sec)
                      ------------------
-------------------
DFT GRID GENERATION
-------------------

General Integration Accuracy     IntAcc      ... 4.388
Radial Grid Type                 RadialGrid  ... OptM3 with GC (2021)
Angular Grid (max. ang.)         AngularGrid ... 4 (Lebedev-302)
Angular grid pruning method      GridPruning ... 4 (adaptive)
Weight generation scheme         WeightScheme... Becke
Basis function cutoff            BFCut       ... 1.0000e-12
Integration weight cutoff        WCut        ... 1.0000e-14
Angular grids for H and He will be reduced by one unit
Partially contracted basis set               ... off
Rotationally invariant grid construction     ... off

Total number of grid points                  ...    33094
Total number of batches                      ...      522
Average number of points per batch           ...       63
Average number of grid points per atom       ...     4728
Time for grid setup =    0.138 sec

--------------------
COSX GRID GENERATION
--------------------

GRIDX 1
-------
General Integration Accuracy     IntAcc      ... 3.816
Radial Grid Type                 RadialGrid  ... OptM3 with GC (2021)
Angular Grid (max. ang.)         AngularGrid ... 1 (Lebedev-50)
Angular grid pruning method      GridPruning ... 4 (adaptive)
Weight generation scheme         WeightScheme... Becke
Basis function cutoff            BFCut       ... 1.0000e-12
Integration weight cutoff        WCut        ... 1.0000e-14
Angular grids for H and He will be reduced by one unit
Partially contracted basis set               ... on
Rotationally invariant grid construction     ... off

Total number of grid points                  ...     4164
Total number of batches                      ...       68
Average number of points per batch           ...       61
Average number of grid points per atom       ...      595
UseSFitting                                  ... on

GRIDX 2
-------
General Integration Accuracy     IntAcc      ... 4.020
Radial Grid Type                 RadialGrid  ... OptM3 with GC (2021)
Angular Grid (max. ang.)         AngularGrid ... 2 (Lebedev-110)
Angular grid pruning method      GridPruning ... 4 (adaptive)
Weight generation scheme         WeightScheme... Becke
Basis function cutoff            BFCut       ... 1.0000e-12
Integration weight cutoff        WCut        ... 1.0000e-14
Angular grids for H and He will be reduced by one unit
Partially contracted basis set               ... on
Rotationally invariant grid construction     ... off

Total number of grid points                  ...    10247
Total number of batches                      ...      164
Average number of points per batch           ...       62
Average number of grid points per atom       ...     1464
UseSFitting                                  ... on

GRIDX 3
-------
General Integration Accuracy     IntAcc      ... 4.338
Radial Grid Type                 RadialGrid  ... OptM3 with GC (2021)
Angular Grid (max. ang.)         AngularGrid ... 3 (Lebedev-194)
Angular grid pruning method      GridPruning ... 4 (adaptive)
Weight generation scheme         WeightScheme... Becke
Basis function cutoff            BFCut       ... 1.0000e-12
Integration weight cutoff        WCut        ... 1.0000e-14
Angular grids for H and He will be reduced by one unit
Partially contracted basis set               ... on
Rotationally invariant grid construction     ... off

Total number of grid points                  ...    23074
Total number of batches                      ...      364
Average number of points per batch           ...       63
Average number of grid points per atom       ...     3296
UseSFitting                                  ... on

Time for X-Grid setup             =    0.181 sec

 re-compute Schwartz prescreening matrix in partically contracted basis (1) ...done (   0.060 sec)
--------------
SCF ITERATIONS
--------------
ITER       Energy         Delta-E        Max-DP      RMS-DP      [F,P]     Damp
               ***  Starting incremental Fock matrix formation  ***
  0   -153.6699450180   0.000000000000 0.03703419  0.00084959  0.2998719 0.7000
  1   -153.7380534563  -0.068108438317 0.02204669  0.00053579  0.1102013 0.7000
                               ***Turning on DIIS***
  2   -153.7602255080  -0.022172051693 0.03452927  0.00083637  0.0452396 0.0000
  3   -153.7997212347  -0.039495726726 0.01576905  0.00035104  0.0586698 0.0000
  4   -153.8071670091  -0.007445774444 0.00713115  0.00012514  0.0183734 0.0000
  5   -153.8080470889  -0.000880079735 0.00187665  0.00004090  0.0037136 0.0000
                      *** Initiating the SOSCF procedure ***
                           *** Shutting down DIIS ***
                      *** Re-Reading the Fockian *** 
                      *** Removing any level shift *** 
ITER      Energy       Delta-E        Grad      Rot      Max-DP    RMS-DP
  6   -153.80807279  -0.0000257022  0.000300  0.000300  0.002272  0.000038
               *** Restarting incremental Fock matrix formation ***
  7   -153.80807344  -0.0000006466  0.000064  0.000146  0.000401  0.000011
  8   -153.80807342   0.0000000177  0.000089  0.000124  0.000078  0.000002
  9   -153.80807357  -0.0000001523  0.000041  0.000086  0.000064  0.000001
 10   -153.80807355   0.0000000183  0.000053  0.000049  0.000030  0.000001
 11   -153.80807358  -0.0000000296  0.000002  0.000003  0.000003  0.000000
 12   -153.80807358  -0.0000000001  0.000001  0.000002  0.000002  0.000000
                  ***Gradient check signals convergence***
              ***Rediagonalizing the Fockian in SOSCF/NRSCF***

               *****************************************************
               *                     SUCCESS                       *
               *           SCF CONVERGED AFTER  13 CYCLES          *
               *****************************************************

Old exchange energy                            =     -3.993447799 Eh
New exchange energy                            =     -3.993432203 Eh
Exchange energy change after final integration =      0.000015596 Eh
Total energy after final integration           =   -153.808057988 Eh
Final COS-X integration done in                =     0.990 sec

----------------
TOTAL SCF ENERGY
----------------

Total Energy       :         -153.80805799 Eh           -4185.33004 eV

Components:
Nuclear Repulsion  :           69.99657036 Eh            1904.70351 eV
Electronic Energy  :         -223.80462835 Eh           -6090.03355 eV
One Electron Energy:         -346.68440634 Eh           -9433.76230 eV
Two Electron Energy:          122.87977799 Eh            3343.72875 eV
Max COSX asymmetry :            0.00000154 Eh               0.00004 eV

Virial components:
Potential Energy   :         -306.75781207 Eh           -8347.30444 eV
Kinetic Energy     :          152.94975409 Eh            4161.97440 eV
Virial Ratio       :            2.00561167


DFT components:
N(Alpha)           :       12.000012886660 electrons
N(Beta)            :       12.000012886660 electrons
N(Total)           :       24.000025773321 electrons
E(X)               :      -15.885175418526 Eh       
E(C)               :       -0.943677094633 Eh       
E(XC)              :      -16.828852513159 Eh       
DFET-embed. en.    :        0.000000000000 Eh       

---------------
SCF CONVERGENCE
---------------

  Last Energy change         ...   -3.0468e-11  Tolerance :   1.0000e-09
  Last MAX-Density change    ...    1.3323e-15  Tolerance :   1.0000e-08
  Last RMS-Density change    ...    1.1760e-17  Tolerance :   1.0000e-09
  Last Orbital Gradient      ...    1.0089e-07  Tolerance :   2.0000e-06
  Last Orbital Rotation      ...    2.3176e-07  Tolerance :   2.0000e-06

             **** THE GBW FILE WAS UPDATED (acetaldehyde_B3LYP.gbw) ****
             **** DENSITY acetaldehyde_B3LYP.scfp WAS UPDATED ****
             **** ENERGY FILE WAS UPDATED (acetaldehyde_B3LYP.en.tmp) ****
             **** THE GBW FILE WAS UPDATED (acetaldehyde_B3LYP.gbw) ****
             **** DENSITY acetaldehyde_B3LYP.scfp WAS UPDATED ****
----------------
ORBITAL ENERGIES
----------------

  NO   OCC          E(Eh)            E(eV) 
   0   2.0000     -19.133767      -520.6563 
   1   2.0000     -10.269055      -279.4352 
   2   2.0000     -10.186132      -277.1787 
   3   2.0000      -1.059726       -28.8366 
   4   2.0000      -0.761063       -20.7096 
   5   2.0000      -0.585463       -15.9312 
   6   2.0000      -0.486736       -13.2448 
   7   2.0000      -0.452546       -12.3144 
   8   2.0000      -0.445252       -12.1159 
   9   2.0000      -0.404858       -11.0167 
  10   2.0000      -0.374433       -10.1889 
  11   2.0000      -0.265588        -7.2270 
  12   0.0000      -0.035638        -0.9698 
  13   0.0000      -0.010281        -0.2798 
  14   0.0000       0.009444         0.2570 
  15   0.0000       0.017915         0.4875 
  16   0.0000       0.028323         0.7707 
  17   0.0000       0.051385         1.3983 
  18   0.0000       0.060413         1.6439 
  19   0.0000       0.072787         1.9806 
  20   0.0000       0.082423         2.2428 
  21   0.0000       0.083211         2.2643 
  22   0.0000       0.085468         2.3257 
  23   0.0000       0.086440         2.3522 
  24   0.0000       0.111502         3.0341 
  25   0.0000       0.122076         3.3219 
  26   0.0000       0.132845         3.6149 
  27   0.0000       0.161260         4.3881 
  28   0.0000       0.162857         4.4316 
  29   0.0000       0.174226         4.7409 
  30   0.0000       0.187723         5.1082 
  31   0.0000       0.201023         5.4701 
  32   0.0000       0.210292         5.7223 
  33   0.0000       0.219117         5.9625 
  34   0.0000       0.232408         6.3241 
  35   0.0000       0.252410         6.8684 
  36   0.0000       0.260389         7.0856 
  37   0.0000       0.260502         7.0886 
  38   0.0000       0.278124         7.5681 
  39   0.0000       0.279082         7.5942 
  40   0.0000       0.307995         8.3810 
  41   0.0000       0.309337         8.4175 
  42   0.0000       0.319170         8.6851 
  43   0.0000       0.320141         8.7115 
  44   0.0000       0.336516         9.1571 
  45   0.0000       0.342788         9.3277 
  46   0.0000       0.351429         9.5629 
  47   0.0000       0.358762         9.7624 
  48   0.0000       0.363626         9.8948 
  49   0.0000       0.370355        10.0779 
  50   0.0000       0.400453        10.8969 
  51   0.0000       0.417386        11.3577 
  52   0.0000       0.426603        11.6085 
  53   0.0000       0.434406        11.8208 
  54   0.0000       0.455335        12.3903 
  55   0.0000       0.484455        13.1827 
  56   0.0000       0.502856        13.6834 
  57   0.0000       0.539510        14.6808 
  58   0.0000       0.561958        15.2917 
  59   0.0000       0.580365        15.7925 
  60   0.0000       0.605520        16.4770 
  61   0.0000       0.612186        16.6584 
  62   0.0000       0.636780        17.3277 
  63   0.0000       0.661905        18.0113 
  64   0.0000       0.680778        18.5249 
  65   0.0000       0.681777        18.5521 
  66   0.0000       0.703464        19.1422 
  67   0.0000       0.715257        19.4631 
  68   0.0000       0.731934        19.9169 
  69   0.0000       0.732046        19.9200 
  70   0.0000       0.758362        20.6361 
  71   0.0000       0.760374        20.6908 
  72   0.0000       0.785560        21.3762 
  73   0.0000       0.805988        21.9321 
  74   0.0000       0.812603        22.1121 
  75   0.0000       0.816317        22.2131 
  76   0.0000       0.830131        22.5890 
  77   0.0000       0.831780        22.6339 
  78   0.0000       0.848853        23.0985 
  79   0.0000       0.864195        23.5159 
  80   0.0000       0.870039        23.6750 
  81   0.0000       0.897291        24.4165 
  82   0.0000       0.914839        24.8940 
  83   0.0000       0.917791        24.9744 
  84   0.0000       0.942672        25.6514 
  85   0.0000       0.966557        26.3014 
  86   0.0000       0.978748        26.6331 
  87   0.0000       0.993752        27.0414 
  88   0.0000       1.031762        28.0757 
  89   0.0000       1.042854        28.3775 
  90   0.0000       1.058715        28.8091 
  91   0.0000       1.061870        28.8950 
  92   0.0000       1.101336        29.9689 
  93   0.0000       1.105378        30.0789 
  94   0.0000       1.128320        30.7032 
  95   0.0000       1.133586        30.8464 
  96   0.0000       1.152104        31.3503 
  97   0.0000       1.192915        32.4609 
  98   0.0000       1.221818        33.2474 
  99   0.0000       1.253341        34.1051 
 100   0.0000       1.274164        34.6718 
 101   0.0000       1.296408        35.2771 
 102   0.0000       1.334533        36.3145 
 103   0.0000       1.340828        36.4858 
 104   0.0000       1.362665        37.0800 
 105   0.0000       1.377085        37.4724 
 106   0.0000       1.419338        38.6222 
 107   0.0000       1.448685        39.4207 
 108   0.0000       1.453213        39.5439 
 109   0.0000       1.466054        39.8934 
 110   0.0000       1.480706        40.2920 
 111   0.0000       1.490037        40.5460 
 112   0.0000       1.537318        41.8326 
 113   0.0000       1.547709        42.1153 
 114   0.0000       1.555566        42.3291 
 115   0.0000       1.577992        42.9393 
 116   0.0000       1.602891        43.6169 
 117   0.0000       1.652094        44.9558 
 118   0.0000       1.660325        45.1797 
 119   0.0000       1.663075        45.2546 
 120   0.0000       1.742761        47.4229 
 121   0.0000       1.748906        47.5902 
 122   0.0000       1.807776        49.1921 
 123   0.0000       1.835335        49.9420 
 124   0.0000       1.891565        51.4721 
 125   0.0000       1.926276        52.4166 
 126   0.0000       1.971025        53.6343 
 127   0.0000       1.989668        54.1416 
 128   0.0000       2.000347        54.4322 
 129   0.0000       2.010125        54.6983 
 130   0.0000       2.058164        56.0055 
 131   0.0000       2.119577        57.6766 
 132   0.0000       2.136471        58.1363 
 133   0.0000       2.182394        59.3860 
 134   0.0000       2.214605        60.2625 
 135   0.0000       2.240089        60.9559 
 136   0.0000       2.300831        62.6088 
 137   0.0000       2.320759        63.1511 
 138   0.0000       2.369646        64.4813 
 139   0.0000       2.457761        66.8791 
 140   0.0000       2.508434        68.2580 
 141   0.0000       2.538277        69.0700 
 142   0.0000       2.612629        71.0933 
 143   0.0000       2.637804        71.7783 
 144   0.0000       2.665474        72.5312 
 145   0.0000       2.737636        74.4949 
 146   0.0000       2.826799        76.9211 
 147   0.0000       2.866194        77.9931 
 148   0.0000       2.922967        79.5380 
 149   0.0000       3.016475        82.0825 
 150   0.0000       3.030046        82.4517 
 151   0.0000       3.064380        83.3860 
 152   0.0000       3.089731        84.0758 
 153   0.0000       3.165880        86.1480 
 154   0.0000       3.178523        86.4920 
 155   0.0000       3.186195        86.7008 
 156   0.0000       3.251598        88.4805 
 157   0.0000       3.269853        88.9772 
 158   0.0000       3.285108        89.3923 
 159   0.0000       3.286500        89.4302 
 160   0.0000       3.346624        91.0663 
 161   0.0000       3.374175        91.8160 
 162   0.0000       3.490353        94.9773 
 163   0.0000       3.515456        95.6604 
 164   0.0000       3.541928        96.3808 
 165   0.0000       3.542984        96.4095 
 166   0.0000       3.588721        97.6541 
 167   0.0000       3.599327        97.9427 
 168   0.0000       3.683343       100.2289 
 169   0.0000       3.697830       100.6231 
 170   0.0000       3.744402       101.8904 
 171   0.0000       3.760717       102.3343 
 172   0.0000       3.765373       102.4610 
 173   0.0000       3.785376       103.0053 
 174   0.0000       3.833500       104.3148 
 175   0.0000       3.886480       105.7565 
 176   0.0000       3.943479       107.3075 
 177   0.0000       3.959237       107.7363 
 178   0.0000       3.979552       108.2891 
 179   0.0000       3.991380       108.6110 
 180   0.0000       4.139720       112.6475 
 181   0.0000       4.147362       112.8555 
 182   0.0000       4.243140       115.4617 
 183   0.0000       4.258203       115.8716 
 184   0.0000       4.348590       118.3312 
 185   0.0000       4.402487       119.7978 
 186   0.0000       4.411138       120.0332 
 187   0.0000       4.468078       121.5826 
 188   0.0000       4.473372       121.7266 
 189   0.0000       4.499382       122.4344 
 190   0.0000       4.548626       123.7744 
 191   0.0000       4.557770       124.0232 
 192   0.0000       4.627478       125.9201 
 193   0.0000       4.706540       128.0715 
 194   0.0000       4.743962       129.0898 
 195   0.0000       4.759267       129.5062 
 196   0.0000       4.863282       132.3366 
 197   0.0000       4.867185       132.4428 
 198   0.0000       4.918934       133.8510 
 199   0.0000       4.968339       135.1954 
 200   0.0000       5.021252       136.6352 
 201   0.0000       5.121887       139.3736 
 202   0.0000       5.162578       140.4809 
 203   0.0000       5.257648       143.0679 
 204   0.0000       5.274055       143.5143 
 205   0.0000       5.329252       145.0163 
 206   0.0000       5.456634       148.4826 
 207   0.0000       5.561220       151.3285 
 208   0.0000       5.657155       153.9390 
 209   0.0000       5.715727       155.5328 
 210   0.0000       5.802173       157.8852 
 211   0.0000       5.881999       160.0573 
 212   0.0000       5.976239       162.6217 
 213   0.0000       6.170299       167.9024 
 214   0.0000       6.216794       169.1676 
 215   0.0000       6.273601       170.7134 
 216   0.0000       6.308089       171.6518 
 217   0.0000       6.510369       177.1561 
 218   0.0000       6.553314       178.3248 
 219   0.0000       6.732053       183.1885 
 220   0.0000       6.769474       184.2068 
 221   0.0000       6.800433       185.0492 
 222   0.0000       7.017611       190.9589 
 223   0.0000       7.104947       193.3354 
 224   0.0000       7.137294       194.2156 
 225   0.0000       7.255505       197.4323 
 226   0.0000       7.327203       199.3833 
 227   0.0000      14.662302       398.9815 
 228   0.0000      15.886615       432.2968 
 229   0.0000      17.266648       469.8494 

                    ********************************
                    * MULLIKEN POPULATION ANALYSIS *
                    ********************************

-----------------------
MULLIKEN ATOMIC CHARGES
-----------------------
   0 C :   -0.515111
   1 C :    0.016862
   2 O :   -0.543537
   3 H :    0.242582
   4 H :    0.217853
   5 H :    0.216495
   6 H :    0.364856
Sum of atomic charges:    0.0000000

--------------------------------
MULLIKEN REDUCED ORBITAL CHARGES
--------------------------------
  0 C s       :     3.233508  s :     3.233508
      pz      :     1.120483  p :     3.194018
      px      :     0.908215
      py      :     1.165320
      dz2     :     0.012641  d :     0.085183
      dxz     :     0.027874
      dyz     :     0.022984
      dx2y2   :     0.012204
      dxy     :     0.009480
      f0      :     0.000218  f :     0.002403
      f+1     :    -0.001839
      f-1     :    -0.000061
      f+2     :     0.002560
      f-2     :     0.000242
      f+3     :     0.002307
      f-3     :    -0.001024
  1 C s       :     3.463274  s :     3.463274
      pz      :     0.693279  p :     2.337698
      px      :     0.829323
      py      :     0.815096
      dz2     :     0.001845  d :     0.157463
      dxz     :     0.025021
      dyz     :     0.027950
      dx2y2   :     0.094539
      dxy     :     0.008108
      f0      :     0.000703  f :     0.024703
      f+1     :     0.001622
      f-1     :     0.001197
      f+2     :     0.003453
      f-2     :     0.003006
      f+3     :     0.002473
      f-3     :     0.012248
  2 O s       :     3.990828  s :     3.990828
      pz      :     1.374982  p :     4.499540
      px      :     1.672416
      py      :     1.452142
      dz2     :     0.003818  d :     0.048971
      dxz     :     0.007104
      dyz     :     0.011743
      dx2y2   :     0.017817
      dxy     :     0.008489
      f0      :     0.000272  f :     0.004198
      f+1     :     0.000321
      f-1     :     0.000178
      f+2     :     0.000303
      f-2     :     0.000867
      f+3     :     0.000461
      f-3     :     0.001794
  3 H s       :     0.719305  s :     0.719305
      pz      :     0.010912  p :     0.035129
      px      :     0.017911
      py      :     0.006305
      dz2     :     0.000599  d :     0.002985
      dxz     :     0.000321
      dyz     :     0.000127
      dx2y2   :     0.000361
      dxy     :     0.001577
  4 H s       :     0.737403  s :     0.737403
      pz      :     0.011845  p :     0.041280
      px      :     0.015336
      py      :     0.014100
      dz2     :     0.000267  d :     0.003463
      dxz     :    -0.000116
      dyz     :     0.001284
      dx2y2   :     0.001592
      dxy     :     0.000436
  5 H s       :     0.738422  s :     0.738422
      pz      :     0.013218  p :     0.041665
      px      :     0.013548
      py      :     0.014900
      dz2     :     0.001506  d :     0.003418
      dxz     :     0.000401
      dyz     :    -0.001424
      dx2y2   :     0.001038
      dxy     :     0.001897
  6 H s       :     0.641280  s :     0.641280
      pz      :    -0.003219  p :    -0.006877
      px      :     0.011282
      py      :    -0.014940
      dz2     :    -0.000342  d :     0.000742
      dxz     :     0.000635
      dyz     :    -0.001347
      dx2y2   :    -0.001117
      dxy     :     0.002913


                     *******************************
                     * LOEWDIN POPULATION ANALYSIS *
                     *******************************

----------------------
LOEWDIN ATOMIC CHARGES
----------------------
   0 C :    0.547687
   1 C :   -0.264448
   2 O :    0.462352
   3 H :   -0.186315
   4 H :   -0.182059
   5 H :   -0.182089
   6 H :   -0.195127

-------------------------------
LOEWDIN REDUCED ORBITAL CHARGES
-------------------------------
  0 C s       :     2.483548  s :     2.483548
      pz      :     0.775366  p :     2.328014
      px      :     0.764909
      py      :     0.787739
      dz2     :     0.066556  d :     0.464932
      dxz     :     0.100395
      dyz     :     0.072448
      dx2y2   :     0.119991
      dxy     :     0.105543
      f0      :     0.019464  f :     0.175819
      f+1     :     0.026161
      f-1     :     0.006868
      f+2     :     0.028790
      f-2     :     0.013525
      f+3     :     0.029242
      f-3     :     0.051768
  1 C s       :     2.546159  s :     2.546159
      pz      :     0.563367  p :     2.231043
      px      :     0.839033
      py      :     0.828643
      dz2     :     0.074571  d :     1.030638
      dxz     :     0.164147
      dyz     :     0.130079
      dx2y2   :     0.352227
      dxy     :     0.309615
      f0      :     0.038011  f :     0.456608
      f+1     :     0.030874
      f-1     :     0.029512
      f+2     :     0.054756
      f-2     :     0.056811
      f+3     :     0.089737
      f-3     :     0.156906
  2 O s       :     3.223607  s :     3.223607
      pz      :     1.156488  p :     4.017834
      px      :     1.457995
      py      :     1.403351
      dz2     :     0.022924  d :     0.219373
      dxz     :     0.014819
      dyz     :     0.035223
      dx2y2   :     0.086676
      dxy     :     0.059730
      f0      :     0.005812  f :     0.076834
      f+1     :     0.005402
      f-1     :     0.006561
      f+2     :     0.005680
      f-2     :     0.010562
      f+3     :     0.015414
      f-3     :     0.027402
  3 H s       :     0.644961  s :     0.644961
      pz      :     0.094287  p :     0.314705
      px      :     0.086244
      py      :     0.134174
      dz2     :     0.035909  d :     0.226650
      dxz     :     0.016947
      dyz     :     0.059018
      dx2y2   :     0.065458
      dxy     :     0.049318
  4 H s       :     0.637698  s :     0.637698
      pz      :     0.136098  p :     0.319453
      px      :     0.092168
      py      :     0.091186
      dz2     :     0.065749  d :     0.224909
      dxz     :     0.045884
      dyz     :     0.070832
      dx2y2   :     0.029674
      dxy     :     0.012770
  5 H s       :     0.637714  s :     0.637714
      pz      :     0.112172  p :     0.319467
      px      :     0.084286
      py      :     0.123009
      dz2     :     0.063678  d :     0.224909
      dxz     :     0.029521
      dyz     :     0.040894
      dx2y2   :     0.051225
      dxy     :     0.039591
  6 H s       :     0.710185  s :     0.710185
      pz      :     0.068265  p :     0.283385
      px      :     0.083948
      py      :     0.131172
      dz2     :     0.029387  d :     0.201557
      dxz     :     0.017637
      dyz     :     0.049138
      dx2y2   :     0.056466
      dxy     :     0.048928


                      *****************************
                      * MAYER POPULATION ANALYSIS *
                      *****************************

  NA   - Mulliken gross atomic population
  ZA   - Total nuclear charge
  QA   - Mulliken gross atomic charge
  VA   - Mayer's total valence
  BVA  - Mayer's bonded valence
  FA   - Mayer's free valence

  ATOM       NA         ZA         QA         VA         BVA        FA
  0 C      6.5151     6.0000    -0.5151     3.7490     3.7490     0.0000
  1 C      5.9831     6.0000     0.0169     3.3680     3.3680     0.0000
  2 O      8.5435     8.0000    -0.5435     1.7615     1.7615    -0.0000
  3 H      0.7574     1.0000     0.2426     0.9950     0.9950     0.0000
  4 H      0.7821     1.0000     0.2179     1.0063     1.0063     0.0000
  5 H      0.7835     1.0000     0.2165     1.0086     1.0086     0.0000
  6 H      0.6351     1.0000     0.3649     0.7793     0.7793     0.0000

  Mayer bond orders larger than 0.100000
B(  0-C ,  1-C ) :   0.8752 B(  0-C ,  3-H ) :   0.9249 B(  0-C ,  4-H ) :   0.9466 
B(  0-C ,  5-H ) :   0.9476 B(  1-C ,  2-O ) :   1.6917 B(  1-C ,  6-H ) :   0.7616 


-------
TIMINGS
-------

Total SCF time: 0 days 0 hours 0 min 8 sec 

Total time                  ....       8.861 sec
Sum of individual times     ....       8.660 sec  ( 97.7%)

Fock matrix formation       ....       8.040 sec  ( 90.7%)
  Split-RI-J                ....       0.616 sec  (  7.7% of F)
  Chain of spheres X        ....       5.845 sec  ( 72.7% of F)
  XC integration            ....       1.541 sec  ( 19.2% of F)
    Basis function eval.    ....       0.329 sec  ( 21.3% of XC)
    Density eval.           ....       0.360 sec  ( 23.3% of XC)
    XC-Functional eval.     ....       0.031 sec  (  2.0% of XC)
    XC-Potential eval.      ....       0.640 sec  ( 41.5% of XC)
Diagonalization             ....       0.070 sec  (  0.8%)
Density matrix formation    ....       0.005 sec  (  0.1%)
Population analysis         ....       0.012 sec  (  0.1%)
Initial guess               ....       0.082 sec  (  0.9%)
Orbital Transformation      ....       0.000 sec  (  0.0%)
Orbital Orthonormalization  ....       0.000 sec  (  0.0%)
DIIS solution               ....       0.030 sec  (  0.3%)
SOSCF solution              ....       0.069 sec  (  0.8%)
Grid generation             ....       0.352 sec  (  4.0%)

Maximum memory used throughout the entire SCF-calculation: 68.4 MB

-------------------------   --------------------
FINAL SINGLE POINT ENERGY      -153.808057988097
-------------------------   --------------------


                            ***************************************
                            *     ORCA property calculations      *
                            ***************************************

                                    ---------------------
                                    Active property flags
                                    ---------------------
   (+) Dipole Moment


------------------------------------------------------------------------------
                       ORCA ELECTRIC PROPERTIES CALCULATION
------------------------------------------------------------------------------

Dipole Moment Calculation                       ... on
Quadrupole Moment Calculation                   ... off
Polarizability Calculation                      ... off
GBWName                                         ... acetaldehyde_B3LYP.gbw
Electron density                                ... acetaldehyde_B3LYP.scfp
The origin for moment calculation is the CENTER OF MASS  = ( 0.437222,  0.635840 -0.399396)

-------------
DIPOLE MOMENT
-------------
                                X             Y             Z
Electronic contribution:     -2.95225       1.47500      -0.11807
Nuclear contribution   :      3.75362      -2.24617       0.29177
                        -----------------------------------------
Total Dipole Moment    :      0.80137      -0.77117       0.17370
                        -----------------------------------------
Magnitude (a.u.)       :      1.12564
Magnitude (Debye)      :      2.86115



--------------------
Rotational spectrum 
--------------------
 
Rotational constants in cm-1:     1.917540     0.341732     0.306399 
Rotational constants in MHz : 57486.395924 10244.864772  9185.612312 

 Dipole components along the rotational axes: 
x,y,z [a.u.] :     1.043472    -0.422172    -0.000050 
x,y,z [Debye]:     2.652296    -1.073075    -0.000126 

 

Timings for individual modules:

Sum of individual times         ...        9.429 sec (=   0.157 min)
GTO integral calculation        ...        0.238 sec (=   0.004 min)   2.5 %
SCF iterations                  ...        9.191 sec (=   0.153 min)  97.5 %
                             ****ORCA TERMINATED NORMALLY****
TOTAL RUN TIME: 0 days 0 hours 0 minutes 9 seconds 605 msec
