
                                 *****************
                                 * O   R   C   A *
                                 *****************

                                            #,                                       
                                            ###                                      
                                            ####                                     
                                            #####                                    
                                            ######                                   
                                           ########,                                 
                                     ,,################,,,,,                         
                               ,,#################################,,                 
                          ,,##########################################,,             
                       ,#########################################, ''#####,          
                    ,#############################################,,   '####,        
                  ,##################################################,,,,####,       
                ,###########''''           ''''###############################       
              ,#####''   ,,,,##########,,,,          '''####'''          '####       
            ,##' ,,,,###########################,,,                        '##       
           ' ,,###''''                  '''############,,,                           
         ,,##''                                '''############,,,,        ,,,,,,###''
      ,#''                                            '''#######################'''  
     '                                                          ''''####''''         
             ,#######,   #######,   ,#######,      ##                                
            ,#'     '#,  ##    ##  ,#'     '#,    #''#        ######   ,####,        
            ##       ##  ##   ,#'  ##            #'  '#       #        #'  '#        
            ##       ##  #######   ##           ,######,      #####,   #    #        
            '#,     ,#'  ##    ##  '#,     ,#' ,#      #,         ##   #,  ,#        
             '#######'   ##     ##  '#######'  #'      '#     #####' # '####'        



                  #######################################################
                  #                        -***-                        #
                  #          Department of theory and spectroscopy      #
                  #    Directorship and core code : Frank Neese         #
                  #        Max Planck Institute fuer Kohlenforschung    #
                  #                Kaiser Wilhelm Platz 1               #
                  #                 D-45470 Muelheim/Ruhr               #
                  #                      Germany                        #
                  #                                                     #
                  #                  All rights reserved                #
                  #                        -***-                        #
                  #######################################################


                         Program Version 5.0.1 -  RELEASE  -


 With contributions from (in alphabetic order):
   Daniel Aravena         : Magnetic Suceptibility
   Michael Atanasov       : Ab Initio Ligand Field Theory (pilot matlab implementation)
   Alexander A. Auer      : GIAO ZORA, VPT2 properties, NMR spectrum
   Ute Becker             : Parallelization
   Giovanni Bistoni       : ED, misc. LED, open-shell LED, HFLD
   Martin Brehm           : Molecular dynamics
   Dmytro Bykov           : SCF Hessian
   Vijay G. Chilkuri      : MRCI spin determinant printing, contributions to CSF-ICE
   Dipayan Datta          : RHF DLPNO-CCSD density
   Achintya Kumar Dutta   : EOM-CC, STEOM-CC
   Dmitry Ganyushin       : Spin-Orbit,Spin-Spin,Magnetic field MRCI
   Miquel Garcia          : C-PCM and meta-GGA Hessian, CC/C-PCM, Gaussian charge scheme
   Yang Guo               : DLPNO-NEVPT2, F12-NEVPT2, CIM, IAO-localization
   Andreas Hansen         : Spin unrestricted coupled pair/coupled cluster methods
   Benjamin Helmich-Paris : MC-RPA, TRAH-SCF, COSX integrals
   Lee Huntington         : MR-EOM, pCC
   Robert Izsak           : Overlap fitted RIJCOSX, COSX-SCS-MP3, EOM
   Marcus Kettner         : VPT2
   Christian Kollmar      : KDIIS, OOCD, Brueckner-CCSD(T), CCSD density, CASPT2, CASPT2-K
   Simone Kossmann        : Meta GGA functionals, TD-DFT gradient, OOMP2, MP2 Hessian
   Martin Krupicka        : Initial AUTO-CI
   Lucas Lang             : DCDCAS
   Marvin Lechner         : AUTO-CI (C++ implementation), FIC-MRCC
   Dagmar Lenk            : GEPOL surface, SMD
   Dimitrios Liakos       : Extrapolation schemes; Compound Job, initial MDCI parallelization
   Dimitrios Manganas     : Further ROCIS development; embedding schemes
   Dimitrios Pantazis     : SARC Basis sets
   Anastasios Papadopoulos: AUTO-CI, single reference methods and gradients
   Taras Petrenko         : DFT Hessian,TD-DFT gradient, ASA, ECA, R-Raman, ABS, FL, XAS/XES, NRVS
   Peter Pinski           : DLPNO-MP2, DLPNO-MP2 Gradient
   Christoph Reimann      : Effective Core Potentials
   Marius Retegan         : Local ZFS, SOC
   Christoph Riplinger    : Optimizer, TS searches, QM/MM, DLPNO-CCSD(T), (RO)-DLPNO pert. Triples
   Tobias Risthaus        : Range-separated hybrids, TD-DFT gradient, RPA, STAB
   Michael Roemelt        : Original ROCIS implementation
   Masaaki Saitow         : Open-shell DLPNO-CCSD energy and density
   Barbara Sandhoefer     : DKH picture change effects
   Avijit Sen             : IP-ROCIS
   Kantharuban Sivalingam : CASSCF convergence, NEVPT2, FIC-MRCI
   Bernardo de Souza      : ESD, SOC TD-DFT
   Georgi Stoychev        : AutoAux, RI-MP2 NMR, DLPNO-MP2 response
   Willem Van den Heuvel  : Paramagnetic NMR
   Boris Wezisla          : Elementary symmetry handling
   Frank Wennmohs         : Technical directorship


 We gratefully acknowledge several colleagues who have allowed us to
 interface, adapt or use parts of their codes:
   Stefan Grimme, W. Hujo, H. Kruse, P. Pracht,  : VdW corrections, initial TS optimization,
                  C. Bannwarth, S. Ehlert          DFT functionals, gCP, sTDA/sTD-DF
   Ed Valeev, F. Pavosevic, A. Kumar             : LibInt (2-el integral package), F12 methods
   Garnet Chan, S. Sharma, J. Yang, R. Olivares  : DMRG
   Ulf Ekstrom                                   : XCFun DFT Library
   Mihaly Kallay                                 : mrcc  (arbitrary order and MRCC methods)
   Jiri Pittner, Ondrej Demel                    : Mk-CCSD
   Frank Weinhold                                : gennbo (NPA and NBO analysis)
   Christopher J. Cramer and Donald G. Truhlar   : smd solvation model
   Lars Goerigk                                  : TD-DFT with DH, B97 family of functionals
   V. Asgeirsson, H. Jonsson                     : NEB implementation
   FAccTs GmbH                                   : IRC, NEB, NEB-TS, DLPNO-Multilevel, CI-OPT
                                                   MM, QMMM, 2- and 3-layer-ONIOM, Crystal-QMMM,
                                                   LR-CPCM, SF, NACMEs, symmetry and pop. for TD-DFT,
                                                   nearIR, NL-DFT gradient (VV10), updates on ESD,
                                                   ML-optimized integration grids
   S Lehtola, MJT Oliveira, MAL Marques          : LibXC Library
   Liviu Ungur et al                             : ANISO software


 Your calculation uses the libint2 library for the computation of 2-el integrals
 For citations please refer to: http://libint.valeyev.net

 Your ORCA version has been built with support for libXC version: 5.1.0
 For citations please refer to: https://tddft.org/programs/libxc/

 This ORCA versions uses:
   CBLAS   interface :  Fast vector & matrix operations
   LAPACKE interface :  Fast linear algebra routines
   SCALAPACK package :  Parallel linear algebra routines
   Shared memory     :  Shared parallel matrices
   BLAS/LAPACK       :  OpenBLAS 0.3.15  USE64BITINT DYNAMIC_ARCH NO_AFFINITY Zen SINGLE_THREADED
        Core in use  :  Zen
   Copyright (c) 2011-2014, The OpenBLAS Project




***************************************
The coordinates will be read from file: furan.xyz
***************************************


================================================================================

----- Orbital basis set information -----
Your calculation utilizes the basis: aug-cc-pVTZ 
    H, B-Ne : Obtained from the ccRepo (grant-hill.group.shef.ac.uk/ccrepo) Feb. 2017
              R. A. Kendall, T. H. Dunning, Jr., R. J. Harrison, J. Chem. Phys. 96, 6796 (1992)
         He : Obtained from the ccRepo (grant-hill.group.shef.ac.uk/ccrepo) Feb. 2017
              D. E. Woon, T. H. Dunning, Jr., J. Chem. Phys. 100, 2975 (1994)
  Li-Be, Na : Obtained from the ccRepo (grant-hill.group.shef.ac.uk/ccrepo) Feb. 2017
              B. P. Prascher, D. E. Woon, K. A. Peterson, T. H. Dunning, Jr., A. K. Wilson, Theor. Chem. Acc. 128, 69 (2011)
         Mg : Obtained from the Peterson Research Group Website (tyr0.chem.wsu.edu/~kipeters) Feb. 2017
              B. P. Prascher, D. E. Woon, K. A. Peterson, T. H. Dunning, Jr., A. K. Wilson, Theor. Chem. Acc. 128, 69 (2011)
      Al-Ar : Obtained from the ccRepo (grant-hill.group.shef.ac.uk/ccrepo) Feb. 2017
              D. E. Woon, T. H. Dunning, Jr., J. Chem. Phys. 98, 1358 (1993)
      Sc-Zn : Obtained from the ccRepo (grant-hill.group.shef.ac.uk/ccrepo) Feb. 2017
              N. B. Balabanov, K. A. Peterson, J. Chem. Phys. 123, 064107 (2005)
              N. B. Balabanov, K. A. Peterson, J. Chem. Phys. 125, 074110 (2006)
      Ga-Kr : Obtained from the ccRepo (grant-hill.group.shef.ac.uk/ccrepo) Feb. 2017
              A. K. Wilson, D. E. Woon, K. A. Peterson, T. H. Dunning, Jr., J. Chem. Phys. 110, 7667 (1999)
     Ag, Au : Obtained from the Peterson Research Group Website (tyr0.chem.wsu.edu/~kipeters) Feb. 2017
              K. A. Peterson, C. Puzzarini, Theor. Chem. Acc. 114, 283 (2005)

----- AuxJ basis set information -----
Your calculation utilizes the auxiliary basis: def2/J
   F. Weigend, Phys. Chem. Chem. Phys. 8, 1057 (2006).

----- AuxC basis set information -----
Your calculation utilizes the auxiliary basis: aug-cc-pVTZ/C 
  H-He, B-F, Al-Ar, Ga-Kr : Obtained from the EMSL Basis Set Exchange (bse.pnl.gov) Feb. 2017
                            F. Weigend, A. Kohn, C. Hattig, J. Chem. Phys. 116, 3175 (2002)
                   Be, Mg : Obtained from the TURBOMOLE 7.0 basis set library
                            C. Haettig, Phys. Chem. Chem. Phys. 7, 59 (2005)
                       Ne : Obtained from the EMSL Basis Set Exchange (bse.pnl.gov) Feb. 2017
                            C. Haettig, Phys. Chem. Chem. Phys. 7, 59 (2005)
                            F. Weigend, A. Kohn, C. Hattig, J. Chem. Phys. 116, 3175 (2002)
                    Sc-Zn : Obtained from the EMSL Basis Set Exchange (bse.pnl.gov) Feb. 2017
                            J. G. Hill, J. A. Platts, J. Chem. Phys. 128, 044104 (2008)

================================================================================
                                        WARNINGS
                       Please study these warnings very carefully!
================================================================================


WARNING: The global RI flag was set to true, but no RI-MP2 calculation was requested


WARNING: Post HF methods need fully converged wavefunctions
  ===> : Setting SCFConvForced true
         You can overwrite this default with %scf ConvForced false 


INFO   : the flag for use of the SHARK integral package has been found!

================================================================================
                                       INPUT FILE
================================================================================
NAME = furan_MP2.inp
|  1> 
|  2> %pal
|  3>   nprocs 6
|  4> end
|  5> %maxcore 2000
|  6> 
|  7> ! MP2 aug-cc-pVTZ VeryTightSCF
|  8> ! RIJCOSX def2/J aug-cc-pVTZ/C
|  9> 
| 10> %mp2
| 11>   density unrelaxed
| 12> end
| 13> 
| 14> * xyzfile 0 1 furan.xyz
| 15> 
| 16> 
| 17>                          ****END OF INPUT****
================================================================================

                       ****************************
                       * Single Point Calculation *
                       ****************************

---------------------------------
CARTESIAN COORDINATES (ANGSTROEM)
---------------------------------
  C     -0.396763    1.309389   -0.000001
  O      0.016195    0.023197   -0.000000
  C      1.367142    0.042429    0.000001
  C      0.664447    2.148923    0.000002
  C      1.823692    1.316209   -0.000002
  H     -1.462896    1.463599   -0.000003
  H      1.854233   -0.918434    0.000003
  H      0.628890    3.226440    0.000004
  H      2.856160    1.626788   -0.000004

----------------------------
CARTESIAN COORDINATES (A.U.)
----------------------------
  NO LB      ZA    FRAG     MASS         X           Y           Z
   0 C     6.0000    0    12.011   -0.749773    2.474386   -0.000002
   1 O     8.0000    0    15.999    0.030604    0.043835   -0.000001
   2 C     6.0000    0    12.011    2.583525    0.080179    0.000003
   3 C     6.0000    0    12.011    1.255623    4.060877    0.000004
   4 C     6.0000    0    12.011    3.446278    2.487275   -0.000004
   5 H     1.0000    0     1.008   -2.764473    2.765802   -0.000005
   6 H     1.0000    0     1.008    3.503992   -1.735589    0.000005
   7 H     1.0000    0     1.008    1.188430    6.097088    0.000007
   8 H     1.0000    0     1.008    5.397360    3.074184   -0.000007

--------------------------------
INTERNAL COORDINATES (ANGSTROEM)
--------------------------------
 C      0   0   0     0.000000000000     0.00000000     0.00000000
 O      1   0   0     1.350860677497     0.00000000     0.00000000
 C      2   1   0     1.351084071349   106.98466618     0.00000000
 C      1   2   3     1.353138499873   110.54763392     0.00000000
 C      3   2   1     1.353127749146   110.53432358     0.00000000
 H      1   2   3     1.077228371698   116.03070781   180.00000667
 H      3   2   1     1.077272027522   116.06622687   179.99998410
 H      4   1   2     1.078103008210   126.45788790   180.00008299
 H      5   3   2     1.078169575685   126.46063577   180.00013001

---------------------------
INTERNAL COORDINATES (A.U.)
---------------------------
 C      0   0   0     0.000000000000     0.00000000     0.00000000
 O      1   0   0     2.552756725553     0.00000000     0.00000000
 C      2   1   0     2.553178878752   106.98466618     0.00000000
 C      1   2   3     2.557061186025   110.54763392     0.00000000
 C      3   2   1     2.557040870096   110.53432358     0.00000000
 H      1   2   3     2.035666606199   116.03070781   180.00000667
 H      3   2   1     2.035749103752   116.06622687   179.99998410
 H      4   1   2     2.037319429674   126.45788790   180.00008299
 H      5   3   2     2.037445223970   126.46063577   180.00013001

---------------------
BASIS SET INFORMATION
---------------------
There are 3 groups of distinct atoms

 Group   1 Type C   : 19s6p3d2f contracted to 5s4p3d2f pattern {88111/3111/111/11}
 Group   2 Type O   : 19s6p3d2f contracted to 5s4p3d2f pattern {88111/3111/111/11}
 Group   3 Type H   : 6s3p2d contracted to 4s3p2d pattern {3111/111/11}

Atom   0C    basis set group =>   1
Atom   1O    basis set group =>   2
Atom   2C    basis set group =>   1
Atom   3C    basis set group =>   1
Atom   4C    basis set group =>   1
Atom   5H    basis set group =>   3
Atom   6H    basis set group =>   3
Atom   7H    basis set group =>   3
Atom   8H    basis set group =>   3
---------------------------------
AUXILIARY/J BASIS SET INFORMATION
---------------------------------
There are 3 groups of distinct atoms

 Group   1 Type C   : 12s5p4d2f1g contracted to 6s4p3d1f1g pattern {711111/2111/211/2/1}
 Group   2 Type O   : 12s5p4d2f1g contracted to 6s4p3d1f1g pattern {711111/2111/211/2/1}
 Group   3 Type H   : 5s2p1d contracted to 3s1p1d pattern {311/2/1}

Atom   0C    basis set group =>   1
Atom   1O    basis set group =>   2
Atom   2C    basis set group =>   1
Atom   3C    basis set group =>   1
Atom   4C    basis set group =>   1
Atom   5H    basis set group =>   3
Atom   6H    basis set group =>   3
Atom   7H    basis set group =>   3
Atom   8H    basis set group =>   3
---------------------------------
AUXILIARY/C BASIS SET INFORMATION
---------------------------------
There are 3 groups of distinct atoms

 Group   1 Type C   : 9s7p6d4f2g contracted to 9s7p6d4f2g pattern {111111111/1111111/111111/1111/11}
 Group   2 Type O   : 9s7p6d4f2g contracted to 9s7p6d4f2g pattern {111111111/1111111/111111/1111/11}
 Group   3 Type H   : 5s4p3d2f contracted to 5s4p3d2f pattern {11111/1111/111/11}

Atom   0C    basis set group =>   1
Atom   1O    basis set group =>   2
Atom   2C    basis set group =>   1
Atom   3C    basis set group =>   1
Atom   4C    basis set group =>   1
Atom   5H    basis set group =>   3
Atom   6H    basis set group =>   3
Atom   7H    basis set group =>   3
Atom   8H    basis set group =>   3


           ************************************************************
           *        Program running with 6 parallel MPI-processes     *
           *              working on a common directory               *
           ************************************************************
------------------------------------------------------------------------------
                           ORCA GTO INTEGRAL CALCULATION
                           -- RI-GTO INTEGRALS CHOSEN --
------------------------------------------------------------------------------
------------------------------------------------------------------------------
                   ___                                                        
                  /   \      - P O W E R E D   B Y -                         
                 /     \                                                     
                 |  |  |   _    _      __       _____    __    __             
                 |  |  |  | |  | |    /  \     |  _  \  |  |  /  |          
                  \  \/   | |  | |   /    \    | | | |  |  | /  /          
                 / \  \   | |__| |  /  /\  \   | |_| |  |  |/  /          
                |  |  |   |  __  | /  /__\  \  |    /   |      \           
                |  |  |   | |  | | |   __   |  |    \   |  |\   \          
                \     /   | |  | | |  |  |  |  | |\  \  |  | \   \       
                 \___/    |_|  |_| |__|  |__|  |_| \__\ |__|  \__/        
                                                                              
                      - O R C A' S   B I G   F R I E N D -                    
                                      &                                       
                       - I N T E G R A L  F E E D E R -                       
                                                                              
 v1 FN, 2020, v2 2021                                                         
------------------------------------------------------------------------------


Reading SHARK input file furan_MP2.SHARKINP.tmp ... ok
----------------------
SHARK INTEGRAL PACKAGE
----------------------

Number of atoms                             ...      9
Number of basis functions                   ...    322
Number of shells                            ...    106
Maximum angular momentum                    ...      3
Integral batch strategy                     ... SHARK/LIBINT Hybrid
RI-J (if used) integral strategy            ... SPLIT-RIJ (Revised 2003 algorithm where possible)
Printlevel                                  ...      1
Contraction scheme used                     ... SEGMENTED contraction
Coulomb Range Separation                    ... NOT USED
Exchange Range Separation                   ... NOT USED
Finite Nucleus Model                        ... NOT USED
Auxiliary Coulomb fitting basis             ... AVAILABLE
   # of basis functions in Aux-J            ...    289
   # of shells in Aux-J                     ...     95
   Maximum angular momentum in Aux-J        ...      4
Auxiliary J/K fitting basis                 ... NOT available
Auxiliary Correlation fitting basis         ... AVAILABLE
   # of basis functions in Aux-C            ...    714
   # of shells in Aux-C                     ...    196
   Maximum angular momentum in Aux-C        ...      4
Auxiliary 'external' fitting basis          ... NOT available
Integral threshold                          ...     1.000000e-12
Primitive cut-off                           ...     1.000000e-14
Primitive pair pre-selection threshold      ...     1.000000e-14

Calculating pre-screening integrals         ... done (  0.1 sec) Dimension = 106
Organizing shell pair data                  ... done (  0.0 sec)
Shell pair information
Total number of shell pairs                 ...      5671
Shell pairs after pre-screening             ...      5651
Total number of primitive shell pairs       ...     19222
Primitive shell pairs kept                  ...     16032
          la=0 lb=0:    858 shell pairs
          la=1 lb=0:   1306 shell pairs
          la=1 lb=1:    525 shell pairs
          la=2 lb=0:    939 shell pairs
          la=2 lb=1:    732 shell pairs
          la=2 lb=2:    276 shell pairs
          la=3 lb=0:    410 shell pairs
          la=3 lb=1:    320 shell pairs
          la=3 lb=2:    230 shell pairs
          la=3 lb=3:     55 shell pairs

Calculating one electron integrals          ... done (  0.0 sec)
Calculating RI/J V-Matrix + Cholesky decomp.... done (  0.0 sec)
Calculating RI/C V-Matrix + Cholesky decomp.... done (  0.0 sec)
Calculating Nuclear repulsion               ... done (  0.0 sec) ENN=    161.790776295265 Eh

SHARK setup successfully completed in   0.2 seconds

Maximum memory used throughout the entire GTOINT-calculation: 17.5 MB


           ************************************************************
           *        Program running with 6 parallel MPI-processes     *
           *              working on a common directory               *
           ************************************************************
-------------------------------------------------------------------------------
                                 ORCA SCF
-------------------------------------------------------------------------------

------------
SCF SETTINGS
------------
Hamiltonian:
 Ab initio Hamiltonian  Method          .... Hartree-Fock(GTOs)
 RI-approximation to the Coulomb term is turned on
   Number of AuxJ basis functions       .... 289
   RIJ-COSX (HFX calculated with COS-X)).... on


General Settings:
 Integral files         IntName         .... furan_MP2
 Hartree-Fock type      HFTyp           .... RHF
 Total Charge           Charge          ....    0
 Multiplicity           Mult            ....    1
 Number of Electrons    NEL             ....   36
 Basis Dimension        Dim             ....  322
 Nuclear Repulsion      ENuc            ....    161.7907762953 Eh

Convergence Acceleration:
 DIIS                   CNVDIIS         .... on
   Start iteration      DIISMaxIt       ....    12
   Startup error        DIISStart       ....  0.200000
   # of expansion vecs  DIISMaxEq       ....     5
   Bias factor          DIISBfac        ....   1.050
   Max. coefficient     DIISMaxC        ....  10.000
 Trust-Rad. Augm. Hess. CNVTRAH         .... auto
   Auto Start mean grad. ratio tolernc. ....  1.125000
   Auto Start start iteration           ....    20
   Auto Start num. interpolation iter.  ....    10
   Max. Number of Micro iterations      ....    16
   Max. Number of Macro iterations      .... Maxiter - #DIIS iter
   Number of Davidson start vectors     ....     2
   Converg. threshold I  (grad. norm)   ....   2.000e-06
   Converg. threshold II (energy diff.) ....   1.000e-09
   Grad. Scal. Fac. for Micro threshold ....   0.100
   Minimum threshold for Micro iter.    ....   0.010
   NR start threshold (gradient norm)   ....   0.001
   Initial trust radius                 ....   0.400
   Minimum AH scaling param. (alpha)    ....   1.000
   Maximum AH scaling param. (alpha)    .... 1000.000
   Orbital update algorithm             .... Taylor
   White noise on init. David. guess    .... on
   Maximum white noise                  ....   0.010
   Quad. conv. algorithm                .... NR
 SOSCF                  CNVSOSCF        .... on
   Start iteration      SOSCFMaxIt      ....   150
   Startup grad/error   SOSCFStart      ....  0.003300
 Level Shifting         CNVShift        .... on
   Level shift para.    LevelShift      ....    0.2500
   Turn off err/grad.   ShiftErr        ....    0.0010
 Zerner damping         CNVZerner       .... off
 Static damping         CNVDamp         .... on
   Fraction old density DampFac         ....    0.7000
   Max. Damping (<1)    DampMax         ....    0.9800
   Min. Damping (>=0)   DampMin         ....    0.0000
   Turn off err/grad.   DampErr         ....    0.1000
 Fernandez-Rico         CNVRico         .... off

SCF Procedure:
 Maximum # iterations   MaxIter         ....   125
 SCF integral mode      SCFMode         .... Direct
   Integral package                     .... SHARK and LIBINT hybrid scheme
 Reset frequency        DirectResetFreq ....    20
 Integral Threshold     Thresh          ....  1.000e-12 Eh
 Primitive CutOff       TCut            ....  1.000e-14 Eh

Convergence Tolerance:
 Convergence Check Mode ConvCheckMode   .... Total+1el-Energy
 Convergence forced     ConvForced      .... 1
 Energy Change          TolE            ....  1.000e-09 Eh
 1-El. energy change                    ....  1.000e-06 Eh
 Orbital Gradient       TolG            ....  2.000e-06
 Orbital Rotation angle TolX            ....  2.000e-06
 DIIS Error             TolErr          ....  1.000e-08


Diagonalization of the overlap matrix:
Smallest eigenvalue                        ... 3.811e-06
Time for diagonalization                   ...    0.010 sec
Threshold for overlap eigenvalues          ... 1.000e-08
Number of eigenvalues below threshold      ... 0
Time for construction of square roots      ...    0.006 sec
Total time needed                          ...    0.017 sec

Time for model grid setup =    0.048 sec

------------------------------
INITIAL GUESS: MODEL POTENTIAL
------------------------------
Loading Hartree-Fock densities                     ... done
Calculating cut-offs                               ... done
Initializing the effective Hamiltonian             ... done
Setting up the integral package (SHARK)            ... done
Starting the Coulomb interaction                   ... done (   0.1 sec)
Reading the grid                                   ... done
Mapping shells                                     ... done
Starting the XC term evaluation                    ... done (   0.1 sec)
Transforming the Hamiltonian                       ... done (   0.0 sec)
Diagonalizing the Hamiltonian                      ... done (   0.0 sec)
Back transforming the eigenvectors                 ... done (   0.0 sec)
Now organizing SCF variables                       ... done
                      ------------------
                      INITIAL GUESS DONE (   0.2 sec)
                      ------------------
--------------------
COSX GRID GENERATION
--------------------

GRIDX 1
-------
General Integration Accuracy     IntAcc      ... 3.816
Radial Grid Type                 RadialGrid  ... OptM3 with GC (2021)
Angular Grid (max. ang.)         AngularGrid ... 1 (Lebedev-50)
Angular grid pruning method      GridPruning ... 4 (adaptive)
Weight generation scheme         WeightScheme... Becke
Basis function cutoff            BFCut       ... 1.0000e-12
Integration weight cutoff        WCut        ... 1.0000e-14
Angular grids for H and He will be reduced by one unit
Partially contracted basis set               ... on
Rotationally invariant grid construction     ... off

Total number of grid points                  ...     5731
Total number of batches                      ...       94
Average number of points per batch           ...       60
Average number of grid points per atom       ...      637
UseSFitting                                  ... on

GRIDX 2
-------
General Integration Accuracy     IntAcc      ... 4.020
Radial Grid Type                 RadialGrid  ... OptM3 with GC (2021)
Angular Grid (max. ang.)         AngularGrid ... 2 (Lebedev-110)
Angular grid pruning method      GridPruning ... 4 (adaptive)
Weight generation scheme         WeightScheme... Becke
Basis function cutoff            BFCut       ... 1.0000e-12
Integration weight cutoff        WCut        ... 1.0000e-14
Angular grids for H and He will be reduced by one unit
Partially contracted basis set               ... on
Rotationally invariant grid construction     ... off

Total number of grid points                  ...    14382
Total number of batches                      ...      231
Average number of points per batch           ...       62
Average number of grid points per atom       ...     1598
UseSFitting                                  ... on

GRIDX 3
-------
General Integration Accuracy     IntAcc      ... 4.338
Radial Grid Type                 RadialGrid  ... OptM3 with GC (2021)
Angular Grid (max. ang.)         AngularGrid ... 3 (Lebedev-194)
Angular grid pruning method      GridPruning ... 4 (adaptive)
Weight generation scheme         WeightScheme... Becke
Basis function cutoff            BFCut       ... 1.0000e-12
Integration weight cutoff        WCut        ... 1.0000e-14
Angular grids for H and He will be reduced by one unit
Partially contracted basis set               ... on
Rotationally invariant grid construction     ... off

Total number of grid points                  ...    31979
Total number of batches                      ...      504
Average number of points per batch           ...       63
Average number of grid points per atom       ...     3553
UseSFitting                                  ... on

Time for X-Grid setup             =    0.409 sec

 re-compute Schwartz prescreening matrix in partically contracted basis (1) ...done (   0.079 sec)
--------------
SCF ITERATIONS
--------------
ITER       Energy         Delta-E        Max-DP      RMS-DP      [F,P]     Damp
               ***  Starting incremental Fock matrix formation  ***
  0   -228.5055722722   0.000000000000 0.05785027  0.00086488  0.2087465 0.7000
  1   -228.5751575522  -0.069585280047 0.04173398  0.00067574  0.1480659 0.7000
                               ***Turning on DIIS***
  2   -228.6185126845  -0.043355132251 0.02969959  0.00049482  0.1085196 0.7000
  3   -229.1153712519  -0.496858567459 0.07180002  0.00132575  0.0793945 0.0000
  4   -228.6715489177   0.443822334252 0.00726633  0.00020205  0.0070655 0.0000
                      *** Initiating the SOSCF procedure ***
                           *** Shutting down DIIS ***
                      *** Re-Reading the Fockian *** 
                      *** Removing any level shift *** 
ITER      Energy       Delta-E        Grad      Rot      Max-DP    RMS-DP
  5   -228.70369210  -0.0321431777  0.002925  0.002925  0.002865  0.000069
               *** Restarting incremental Fock matrix formation ***
  6   -228.71082528  -0.0071331834  0.001612  0.002873  0.019105  0.000291
  7   -228.71086246  -0.0000371792  0.000724  0.003163  0.010157  0.000139
  8   -228.71087673  -0.0000142691  0.000192  0.000170  0.007111  0.000101
  9   -228.71087819  -0.0000014672  0.000085  0.000157  0.000847  0.000011
 10   -228.71087835  -0.0000001523  0.000016  0.000026  0.000168  0.000003
 11   -228.71087836  -0.0000000113  0.000010  0.000015  0.000048  0.000001
 12   -228.71087836  -0.0000000037  0.000001  0.000002  0.000014  0.000000
 13   -228.71087836  -0.0000000003  0.000001  0.000002  0.000006  0.000000
                  ***Gradient check signals convergence***
              ***Rediagonalizing the Fockian in SOSCF/NRSCF***

               *****************************************************
               *                     SUCCESS                       *
               *           SCF CONVERGED AFTER  14 CYCLES          *
               *****************************************************

Old exchange energy                            =    -30.423961361 Eh
New exchange energy                            =    -30.423937509 Eh
Exchange energy change after final integration =      0.000023851 Eh
Total energy after final integration           =   -228.710854510 Eh
Final COS-X integration done in                =     2.636 sec

----------------
TOTAL SCF ENERGY
----------------

Total Energy       :         -228.71085451 Eh           -6223.53875 eV

Components:
Nuclear Repulsion  :          161.79077630 Eh            4402.55084 eV
Electronic Energy  :         -390.50163081 Eh          -10626.08959 eV
One Electron Energy:         -630.58679803 Eh          -17159.13913 eV
Two Electron Energy:          240.08516722 Eh            6533.04953 eV
Max COSX asymmetry :            0.00002010 Eh               0.00055 eV

Virial components:
Potential Energy   :         -457.11630519 Eh          -12438.76704 eV
Kinetic Energy     :          228.40545068 Eh            6215.22829 eV
Virial Ratio       :            2.00133711


---------------
SCF CONVERGENCE
---------------

  Last Energy change         ...    1.7405e-10  Tolerance :   1.0000e-09
  Last MAX-Density change    ...    3.5527e-15  Tolerance :   1.0000e-08
  Last RMS-Density change    ...    2.4039e-17  Tolerance :   1.0000e-09
  Last Orbital Gradient      ...    1.2874e-07  Tolerance :   2.0000e-06
  Last Orbital Rotation      ...    2.5812e-07  Tolerance :   2.0000e-06

             **** THE GBW FILE WAS UPDATED (furan_MP2.gbw) ****
             **** DENSITY furan_MP2.scfp WAS UPDATED ****
             **** ENERGY FILE WAS UPDATED (furan_MP2.en.tmp) ****
             **** THE GBW FILE WAS UPDATED (furan_MP2.gbw) ****
             **** DENSITY furan_MP2.scfp WAS UPDATED ****
----------------
ORBITAL ENERGIES
----------------

  NO   OCC          E(Eh)            E(eV) 
   0   2.0000     -20.625629      -561.2519 
   1   2.0000     -11.286713      -307.1271 
   2   2.0000     -11.286626      -307.1247 
   3   2.0000     -11.229695      -305.5755 
   4   2.0000     -11.228690      -305.5482 
   5   2.0000      -1.467315       -39.9277 
   6   2.0000      -1.087116       -29.5819 
   7   2.0000      -1.007723       -27.4215 
   8   2.0000      -0.810211       -22.0470 
   9   2.0000      -0.780813       -21.2470 
  10   2.0000      -0.742575       -20.2065 
  11   2.0000      -0.639109       -17.3911 
  12   2.0000      -0.611269       -16.6335 
  13   2.0000      -0.576544       -15.6886 
  14   2.0000      -0.567321       -15.4376 
  15   2.0000      -0.540410       -14.7053 
  16   2.0000      -0.399483       -10.8705 
  17   2.0000      -0.321012        -8.7352 
  18   0.0000       0.029839         0.8119 
  19   0.0000       0.035523         0.9666 
  20   0.0000       0.038453         1.0463 
  21   0.0000       0.049180         1.3382 
  22   0.0000       0.080822         2.1993 
  23   0.0000       0.089949         2.4476 
  24   0.0000       0.102212         2.7813 
  25   0.0000       0.109623         2.9830 
  26   0.0000       0.111848         3.0435 
  27   0.0000       0.112520         3.0618 
  28   0.0000       0.116749         3.1769 
  29   0.0000       0.122820         3.3421 
  30   0.0000       0.128232         3.4894 
  31   0.0000       0.134570         3.6618 
  32   0.0000       0.136344         3.7101 
  33   0.0000       0.141903         3.8614 
  34   0.0000       0.151422         4.1204 
  35   0.0000       0.162120         4.4115 
  36   0.0000       0.207586         5.6487 
  37   0.0000       0.209320         5.6959 
  38   0.0000       0.224807         6.1173 
  39   0.0000       0.230572         6.2742 
  40   0.0000       0.243697         6.6313 
  41   0.0000       0.258114         7.0236 
  42   0.0000       0.258355         7.0302 
  43   0.0000       0.270274         7.3545 
  44   0.0000       0.273468         7.4414 
  45   0.0000       0.276865         7.5339 
  46   0.0000       0.297418         8.0931 
  47   0.0000       0.305635         8.3168 
  48   0.0000       0.313646         8.5347 
  49   0.0000       0.320304         8.7159 
  50   0.0000       0.330508         8.9936 
  51   0.0000       0.331544         9.0218 
  52   0.0000       0.340022         9.2525 
  53   0.0000       0.348947         9.4953 
  54   0.0000       0.384284        10.4569 
  55   0.0000       0.387132        10.5344 
  56   0.0000       0.392802        10.6887 
  57   0.0000       0.406616        11.0646 
  58   0.0000       0.416105        11.3228 
  59   0.0000       0.426651        11.6098 
  60   0.0000       0.431481        11.7412 
  61   0.0000       0.439699        11.9648 
  62   0.0000       0.445665        12.1272 
  63   0.0000       0.450406        12.2562 
  64   0.0000       0.469345        12.7715 
  65   0.0000       0.469562        12.7774 
  66   0.0000       0.480050        13.0628 
  67   0.0000       0.484520        13.1845 
  68   0.0000       0.492262        13.3951 
  69   0.0000       0.503324        13.6962 
  70   0.0000       0.509644        13.8681 
  71   0.0000       0.520938        14.1754 
  72   0.0000       0.521439        14.1891 
  73   0.0000       0.528367        14.3776 
  74   0.0000       0.561268        15.2729 
  75   0.0000       0.576237        15.6802 
  76   0.0000       0.579294        15.7634 
  77   0.0000       0.591458        16.0944 
  78   0.0000       0.629591        17.1321 
  79   0.0000       0.629888        17.1401 
  80   0.0000       0.643453        17.5092 
  81   0.0000       0.643856        17.5202 
  82   0.0000       0.658329        17.9140 
  83   0.0000       0.710804        19.3419 
  84   0.0000       0.716966        19.5096 
  85   0.0000       0.723544        19.6886 
  86   0.0000       0.733796        19.9676 
  87   0.0000       0.735054        20.0018 
  88   0.0000       0.735802        20.0222 
  89   0.0000       0.767784        20.8925 
  90   0.0000       0.778282        21.1781 
  91   0.0000       0.784584        21.3496 
  92   0.0000       0.828614        22.5477 
  93   0.0000       0.839402        22.8413 
  94   0.0000       0.865372        23.5480 
  95   0.0000       0.867667        23.6104 
  96   0.0000       0.870606        23.6904 
  97   0.0000       0.887699        24.1555 
  98   0.0000       0.900415        24.5015 
  99   0.0000       0.907996        24.7078 
 100   0.0000       0.911614        24.8063 
 101   0.0000       0.923926        25.1413 
 102   0.0000       0.947877        25.7930 
 103   0.0000       0.951350        25.8875 
 104   0.0000       0.954049        25.9610 
 105   0.0000       0.966108        26.2891 
 106   0.0000       0.969611        26.3845 
 107   0.0000       0.983969        26.7752 
 108   0.0000       0.999448        27.1964 
 109   0.0000       1.017736        27.6940 
 110   0.0000       1.027456        27.9585 
 111   0.0000       1.041812        28.3491 
 112   0.0000       1.043731        28.4014 
 113   0.0000       1.052179        28.6312 
 114   0.0000       1.064627        28.9700 
 115   0.0000       1.078035        29.3348 
 116   0.0000       1.084946        29.5229 
 117   0.0000       1.090844        29.6834 
 118   0.0000       1.094584        29.7851 
 119   0.0000       1.113912        30.3111 
 120   0.0000       1.134335        30.8668 
 121   0.0000       1.134603        30.8741 
 122   0.0000       1.143827        31.1251 
 123   0.0000       1.144784        31.1511 
 124   0.0000       1.162934        31.6451 
 125   0.0000       1.166374        31.7386 
 126   0.0000       1.171789        31.8860 
 127   0.0000       1.216121        33.0923 
 128   0.0000       1.226695        33.3801 
 129   0.0000       1.238393        33.6984 
 130   0.0000       1.270148        34.5625 
 131   0.0000       1.271214        34.5915 
 132   0.0000       1.277496        34.7624 
 133   0.0000       1.284870        34.9631 
 134   0.0000       1.317066        35.8392 
 135   0.0000       1.363310        37.0975 
 136   0.0000       1.369387        37.2629 
 137   0.0000       1.399994        38.0958 
 138   0.0000       1.448015        39.4025 
 139   0.0000       1.457979        39.6736 
 140   0.0000       1.461320        39.7645 
 141   0.0000       1.468439        39.9582 
 142   0.0000       1.480727        40.2926 
 143   0.0000       1.502147        40.8755 
 144   0.0000       1.535614        41.7862 
 145   0.0000       1.547206        42.1016 
 146   0.0000       1.580719        43.0135 
 147   0.0000       1.597663        43.4746 
 148   0.0000       1.630131        44.3581 
 149   0.0000       1.665080        45.3091 
 150   0.0000       1.685281        45.8588 
 151   0.0000       1.693956        46.0949 
 152   0.0000       1.694772        46.1171 
 153   0.0000       1.709676        46.5226 
 154   0.0000       1.729907        47.0732 
 155   0.0000       1.743256        47.4364 
 156   0.0000       1.752881        47.6983 
 157   0.0000       1.760852        47.9152 
 158   0.0000       1.795984        48.8712 
 159   0.0000       1.832872        49.8750 
 160   0.0000       1.854971        50.4763 
 161   0.0000       1.866638        50.7938 
 162   0.0000       1.887697        51.3668 
 163   0.0000       1.897334        51.6291 
 164   0.0000       1.900903        51.7262 
 165   0.0000       1.925736        52.4019 
 166   0.0000       1.952527        53.1310 
 167   0.0000       1.964964        53.4694 
 168   0.0000       1.970999        53.6336 
 169   0.0000       1.974081        53.7175 
 170   0.0000       1.984947        54.0132 
 171   0.0000       2.013870        54.8002 
 172   0.0000       2.045857        55.6706 
 173   0.0000       2.056566        55.9620 
 174   0.0000       2.084585        56.7244 
 175   0.0000       2.089225        56.8507 
 176   0.0000       2.140254        58.2393 
 177   0.0000       2.163911        58.8830 
 178   0.0000       2.232966        60.7621 
 179   0.0000       2.245654        61.1073 
 180   0.0000       2.272451        61.8365 
 181   0.0000       2.294577        62.4386 
 182   0.0000       2.338441        63.6322 
 183   0.0000       2.359131        64.1952 
 184   0.0000       2.367692        64.4282 
 185   0.0000       2.394116        65.1472 
 186   0.0000       2.414126        65.6917 
 187   0.0000       2.418810        65.8192 
 188   0.0000       2.500064        68.0302 
 189   0.0000       2.512988        68.3819 
 190   0.0000       2.543085        69.2008 
 191   0.0000       2.585135        70.3451 
 192   0.0000       2.589414        70.4615 
 193   0.0000       2.592067        70.5337 
 194   0.0000       2.665111        72.5214 
 195   0.0000       2.752366        74.8957 
 196   0.0000       2.815260        76.6071 
 197   0.0000       2.868851        78.0654 
 198   0.0000       2.874213        78.2113 
 199   0.0000       2.914123        79.2973 
 200   0.0000       2.999573        81.6225 
 201   0.0000       3.029047        82.4246 
 202   0.0000       3.080811        83.8331 
 203   0.0000       3.085253        83.9540 
 204   0.0000       3.141654        85.4888 
 205   0.0000       3.149580        85.7044 
 206   0.0000       3.167724        86.1981 
 207   0.0000       3.196496        86.9811 
 208   0.0000       3.230968        87.9191 
 209   0.0000       3.277410        89.1829 
 210   0.0000       3.319452        90.3269 
 211   0.0000       3.332357        90.6780 
 212   0.0000       3.365423        91.5778 
 213   0.0000       3.376142        91.8695 
 214   0.0000       3.376998        91.8928 
 215   0.0000       3.380310        91.9829 
 216   0.0000       3.417880        93.0052 
 217   0.0000       3.419983        93.0625 
 218   0.0000       3.435112        93.4741 
 219   0.0000       3.545630        96.4815 
 220   0.0000       3.550319        96.6091 
 221   0.0000       3.568863        97.1137 
 222   0.0000       3.577973        97.3616 
 223   0.0000       3.600614        97.9777 
 224   0.0000       3.604681        98.0884 
 225   0.0000       3.627189        98.7008 
 226   0.0000       3.648519        99.2812 
 227   0.0000       3.665220        99.7357 
 228   0.0000       3.682145       100.1963 
 229   0.0000       3.699090       100.6574 
 230   0.0000       3.741064       101.7995 
 231   0.0000       3.798580       103.3646 
 232   0.0000       3.812730       103.7496 
 233   0.0000       3.861342       105.0725 
 234   0.0000       3.867657       105.2443 
 235   0.0000       3.878187       105.5308 
 236   0.0000       3.880180       105.5851 
 237   0.0000       3.917448       106.5992 
 238   0.0000       3.949119       107.4610 
 239   0.0000       3.963986       107.8655 
 240   0.0000       4.034138       109.7745 
 241   0.0000       4.049270       110.1863 
 242   0.0000       4.055822       110.3645 
 243   0.0000       4.079606       111.0117 
 244   0.0000       4.088850       111.2633 
 245   0.0000       4.124264       112.2269 
 246   0.0000       4.126480       112.2872 
 247   0.0000       4.147733       112.8655 
 248   0.0000       4.194389       114.1351 
 249   0.0000       4.229361       115.0868 
 250   0.0000       4.233523       115.2000 
 251   0.0000       4.250482       115.6615 
 252   0.0000       4.283570       116.5619 
 253   0.0000       4.286896       116.6524 
 254   0.0000       4.306953       117.1981 
 255   0.0000       4.315764       117.4379 
 256   0.0000       4.331740       117.8727 
 257   0.0000       4.344523       118.2205 
 258   0.0000       4.426288       120.4454 
 259   0.0000       4.468715       121.5999 
 260   0.0000       4.490189       122.1843 
 261   0.0000       4.498522       122.4110 
 262   0.0000       4.526417       123.1701 
 263   0.0000       4.581877       124.6792 
 264   0.0000       4.606305       125.3439 
 265   0.0000       4.659444       126.7899 
 266   0.0000       4.712237       128.2265 
 267   0.0000       4.790481       130.3556 
 268   0.0000       4.819809       131.1537 
 269   0.0000       4.831320       131.4669 
 270   0.0000       4.833928       131.5379 
 271   0.0000       4.908836       133.5762 
 272   0.0000       4.909636       133.5980 
 273   0.0000       4.963384       135.0606 
 274   0.0000       4.977692       135.4499 
 275   0.0000       4.987979       135.7298 
 276   0.0000       5.038903       137.1155 
 277   0.0000       5.069618       137.9513 
 278   0.0000       5.105324       138.9229 
 279   0.0000       5.109408       139.0341 
 280   0.0000       5.129482       139.5803 
 281   0.0000       5.172804       140.7591 
 282   0.0000       5.204754       141.6285 
 283   0.0000       5.213707       141.8722 
 284   0.0000       5.337160       145.2315 
 285   0.0000       5.392840       146.7466 
 286   0.0000       5.461034       148.6023 
 287   0.0000       5.490680       149.4090 
 288   0.0000       5.491981       149.4444 
 289   0.0000       5.579494       151.8257 
 290   0.0000       5.772442       157.0761 
 291   0.0000       5.785851       157.4410 
 292   0.0000       5.831531       158.6840 
 293   0.0000       5.846244       159.0844 
 294   0.0000       5.925823       161.2498 
 295   0.0000       6.143606       167.1760 
 296   0.0000       6.280941       170.9131 
 297   0.0000       6.281498       170.9283 
 298   0.0000       6.408426       174.3821 
 299   0.0000       6.498899       176.8440 
 300   0.0000       6.593060       179.4063 
 301   0.0000       6.682834       181.8492 
 302   0.0000       6.700860       182.3397 
 303   0.0000       6.751617       183.7208 
 304   0.0000       6.841312       186.1616 
 305   0.0000       6.984589       190.0603 
 306   0.0000       7.005898       190.6402 
 307   0.0000       7.046003       191.7315 
 308   0.0000       7.270084       197.8291 
 309   0.0000       7.379115       200.7959 
 310   0.0000       7.459802       202.9915 
 311   0.0000       7.606330       206.9788 
 312   0.0000       7.706584       209.7068 
 313   0.0000       7.728288       210.2974 
 314   0.0000       7.860267       213.8887 
 315   0.0000       8.316616       226.3066 
 316   0.0000       8.382875       228.1096 
 317   0.0000      14.564351       396.3161 
 318   0.0000      16.981513       462.0905 
 319   0.0000      17.699324       481.6231 
 320   0.0000      18.154564       494.0108 
 321   0.0000      19.015608       517.4410 

                    ********************************
                    * MULLIKEN POPULATION ANALYSIS *
                    ********************************

-----------------------
MULLIKEN ATOMIC CHARGES
-----------------------
   0 C :   -0.525119
   1 O :   -0.276227
   2 C :   -0.487240
   3 C :   -0.559273
   4 C :   -0.559432
   5 H :    0.694972
   6 H :    0.741691
   7 H :    0.493463
   8 H :    0.477165
Sum of atomic charges:    0.0000000

--------------------------------
MULLIKEN REDUCED ORBITAL CHARGES
--------------------------------
  0 C s       :     3.707533  s :     3.707533
      pz      :     0.966952  p :     2.692985
      px      :     1.104562
      py      :     0.621472
      dz2     :     0.000469  d :     0.085576
      dxz     :    -0.000280
      dyz     :     0.053565
      dx2y2   :     0.019795
      dxy     :     0.012026
      f0      :     0.003328  f :     0.039025
      f+1     :     0.000616
      f-1     :     0.001239
      f+2     :     0.004778
      f-2     :     0.005545
      f+3     :     0.006754
      f-3     :     0.016765
  1 O s       :     3.855301  s :     3.855301
      pz      :     1.683993  p :     4.338486
      px      :     1.285155
      py      :     1.369338
      dz2     :    -0.004122  d :     0.074004
      dxz     :     0.023705
      dyz     :     0.017263
      dx2y2   :     0.023848
      dxy     :     0.013310
      f0      :     0.001242  f :     0.008436
      f+1     :     0.000153
      f-1     :    -0.000031
      f+2     :     0.002417
      f-2     :     0.000483
      f+3     :     0.002029
      f-3     :     0.002143
  2 C s       :     3.652956  s :     3.652956
      pz      :     0.968929  p :     2.706612
      px      :     0.643038
      py      :     1.094645
      dz2     :     0.000190  d :     0.088832
      dxz     :     0.042110
      dyz     :     0.011604
      dx2y2   :     0.018193
      dxy     :     0.016735
      f0      :     0.003349  f :     0.038840
      f+1     :     0.001101
      f-1     :     0.000664
      f+2     :     0.010191
      f-2     :    -0.000075
      f+3     :     0.001314
      f-3     :     0.022298
  3 C s       :     3.247981  s :     3.247981
      pz      :     1.033217  p :     3.189958
      px      :     1.045806
      py      :     1.110935
      dz2     :     0.005876  d :     0.131489
      dxz     :     0.020834
      dyz     :     0.019189
      dx2y2   :     0.069425
      dxy     :     0.016166
      f0      :     0.002111  f :    -0.010155
      f+1     :     0.000806
      f-1     :     0.001124
      f+2     :    -0.000708
      f-2     :     0.002622
      f+3     :    -0.017996
      f-3     :     0.001886
  4 C s       :     3.228697  s :     3.228697
      pz      :     1.030798  p :     3.217838
      px      :     1.139621
      py      :     1.047420
      dz2     :     0.006400  d :     0.122665
      dxz     :     0.013491
      dyz     :     0.025465
      dx2y2   :     0.096041
      dxy     :    -0.018732
      f0      :     0.002004  f :    -0.009768
      f+1     :     0.000690
      f-1     :     0.001150
      f+2     :     0.000863
      f-2     :     0.000926
      f+3     :    -0.017515
      f-3     :     0.002115
  5 H s       :     0.322180  s :     0.322180
      pz      :     0.002606  p :    -0.015575
      px      :    -0.006839
      py      :    -0.011342
      dz2     :    -0.001889  d :    -0.001576
      dxz     :     0.001375
      dyz     :     0.000698
      dx2y2   :    -0.000115
      dxy     :    -0.001645
  6 H s       :     0.278622  s :     0.278622
      pz      :     0.002617  p :    -0.018971
      px      :    -0.014319
      py      :    -0.007269
      dz2     :    -0.001902  d :    -0.001342
      dxz     :     0.001202
      dyz     :     0.000884
      dx2y2   :    -0.001838
      dxy     :     0.000312
  7 H s       :     0.476944  s :     0.476944
      pz      :     0.017944  p :     0.030057
      px      :     0.007759
      py      :     0.004354
      dz2     :    -0.002710  d :    -0.000464
      dxz     :    -0.000048
      dyz     :     0.002893
      dx2y2   :    -0.001321
      dxy     :     0.000722
  8 H s       :     0.481502  s :     0.481502
      pz      :     0.017151  p :     0.041360
      px      :     0.009818
      py      :     0.014390
      dz2     :    -0.002723  d :    -0.000027
      dxz     :     0.002462
      dyz     :     0.000306
      dx2y2   :    -0.000359
      dxy     :     0.000287


                     *******************************
                     * LOEWDIN POPULATION ANALYSIS *
                     *******************************

----------------------
LOEWDIN ATOMIC CHARGES
----------------------
   0 C :   -0.046635
   1 O :    0.549683
   2 C :   -0.046234
   3 C :    0.158045
   4 C :    0.158394
   5 H :   -0.191635
   6 H :   -0.191502
   7 H :   -0.195027
   8 H :   -0.195089

-------------------------------
LOEWDIN REDUCED ORBITAL CHARGES
-------------------------------
  0 C s       :     2.498218  s :     2.498218
      pz      :     0.621753  p :     2.206983
      px      :     0.884911
      py      :     0.700319
      dz2     :     0.079204  d :     0.855893
      dxz     :     0.068473
      dyz     :     0.174786
      dx2y2   :     0.315714
      dxy     :     0.217715
      f0      :     0.035130  f :     0.485541
      f+1     :     0.026481
      f-1     :     0.039341
      f+2     :     0.055857
      f-2     :     0.058189
      f+3     :     0.138205
      f-3     :     0.132338
  1 O s       :     2.982540  s :     2.982540
      pz      :     1.301556  p :     3.838414
      px      :     1.234922
      py      :     1.301936
      dz2     :     0.045801  d :     0.487309
      dxz     :     0.087699
      dyz     :     0.065818
      dx2y2   :     0.126393
      dxy     :     0.161598
      f0      :     0.007869  f :     0.142053
      f+1     :     0.009322
      f-1     :     0.008359
      f+2     :     0.032705
      f-2     :     0.004011
      f+3     :     0.027727
      f-3     :     0.052059
  2 C s       :     2.498099  s :     2.498099
      pz      :     0.621930  p :     2.207051
      px      :     0.680000
      py      :     0.905122
      dz2     :     0.079203  d :     0.855632
      dxz     :     0.153105
      dyz     :     0.090021
      dx2y2   :     0.246721
      dxy     :     0.286582
      f0      :     0.035119  f :     0.485452
      f+1     :     0.038651
      f-1     :     0.027155
      f+2     :     0.096583
      f-2     :     0.017407
      f+3     :     0.105254
      f-3     :     0.165282
  3 C s       :     2.500386  s :     2.500386
      pz      :     0.632675  p :     2.312269
      px      :     0.823288
      py      :     0.856306
      dz2     :     0.068458  d :     0.685096
      dxz     :     0.130853
      dyz     :     0.050657
      dx2y2   :     0.257354
      dxy     :     0.177774
      f0      :     0.020712  f :     0.344204
      f+1     :     0.026933
      f-1     :     0.025360
      f+2     :     0.010231
      f-2     :     0.074219
      f+3     :     0.116473
      f-3     :     0.070276
  4 C s       :     2.500334  s :     2.500334
      pz      :     0.632664  p :     2.312070
      px      :     0.844843
      py      :     0.834563
      dz2     :     0.068475  d :     0.684992
      dxz     :     0.068848
      dyz     :     0.112663
      dx2y2   :     0.246687
      dxy     :     0.188318
      f0      :     0.020706  f :     0.344210
      f+1     :     0.024689
      f-1     :     0.027616
      f+2     :     0.036560
      f-2     :     0.047888
      f+3     :     0.096243
      f-3     :     0.090508
  5 H s       :     0.705817  s :     0.705817
      pz      :     0.089794  p :     0.285346
      px      :     0.137186
      py      :     0.058366
      dz2     :     0.022317  d :     0.200472
      dxz     :     0.061666
      dyz     :     0.006738
      dx2y2   :     0.048148
      dxy     :     0.061604
  6 H s       :     0.705711  s :     0.705711
      pz      :     0.089815  p :     0.285328
      px      :     0.070999
      py      :     0.124515
      dz2     :     0.022314  d :     0.200462
      dxz     :     0.014301
      dyz     :     0.054124
      dx2y2   :     0.065053
      dxy     :     0.044669
  7 H s       :     0.693615  s :     0.693615
      pz      :     0.091555  p :     0.296051
      px      :     0.066047
      py      :     0.138449
      dz2     :     0.020439  d :     0.205361
      dxz     :     0.003888
      dyz     :     0.063020
      dx2y2   :     0.042784
      dxy     :     0.075230
  8 H s       :     0.693578  s :     0.693578
      pz      :     0.091504  p :     0.296107
      px      :     0.132905
      py      :     0.071698
      dz2     :     0.020447  d :     0.205404
      dxz     :     0.054300
      dyz     :     0.012607
      dx2y2   :     0.051905
      dxy     :     0.066144


                      *****************************
                      * MAYER POPULATION ANALYSIS *
                      *****************************

  NA   - Mulliken gross atomic population
  ZA   - Total nuclear charge
  QA   - Mulliken gross atomic charge
  VA   - Mayer's total valence
  BVA  - Mayer's bonded valence
  FA   - Mayer's free valence

  ATOM       NA         ZA         QA         VA         BVA        FA
  0 C      6.5251     6.0000    -0.5251     2.9245     2.9245     0.0000
  1 O      8.2762     8.0000    -0.2762     1.8527     1.8527     0.0000
  2 C      6.4872     6.0000    -0.4872     2.9401     2.9401     0.0000
  3 C      6.5593     6.0000    -0.5593     3.2586     3.2586    -0.0000
  4 C      6.5594     6.0000    -0.5594     3.2858     3.2858     0.0000
  5 H      0.3050     1.0000     0.6950     0.4419     0.4419     0.0000
  6 H      0.2583     1.0000     0.7417     0.3574     0.3574    -0.0000
  7 H      0.5065     1.0000     0.4935     0.8146     0.8146    -0.0000
  8 H      0.5228     1.0000     0.4772     0.8544     0.8544    -0.0000

  Mayer bond orders larger than 0.100000
B(  0-C ,  1-O ) :   1.0338 B(  0-C ,  3-C ) :   1.3319 B(  0-C ,  5-H ) :   0.4783 
B(  1-O ,  2-C ) :   1.0425 B(  2-C ,  4-C ) :   1.3629 B(  2-C ,  6-H ) :   0.3986 
B(  3-C ,  4-C ) :   1.1905 B(  3-C ,  7-H ) :   0.8478 B(  4-C ,  8-H ) :   0.8702 


-------
TIMINGS
-------

Total SCF time: 0 days 0 hours 0 min 23 sec 

Total time                  ....      23.380 sec
Sum of individual times     ....      23.058 sec  ( 98.6%)

Fock matrix formation       ....      21.954 sec  ( 93.9%)
  Split-RI-J                ....       1.928 sec  (  8.8% of F)
  Chain of spheres X        ....      19.814 sec  ( 90.3% of F)
Diagonalization             ....       0.171 sec  (  0.7%)
Density matrix formation    ....       0.012 sec  (  0.1%)
Population analysis         ....       0.031 sec  (  0.1%)
Initial guess               ....       0.147 sec  (  0.6%)
Orbital Transformation      ....       0.000 sec  (  0.0%)
Orbital Orthonormalization  ....       0.000 sec  (  0.0%)
DIIS solution               ....       0.077 sec  (  0.3%)
SOSCF solution              ....       0.209 sec  (  0.9%)

Maximum memory used throughout the entire SCF-calculation: 78.2 MB


           ************************************************************
           *        Program running with 6 parallel MPI-processes     *
           *              working on a common directory               *
           ************************************************************

------------------------------------------------------------------------------
                                ORCA  MP2 
------------------------------------------------------------------------------

Freezing NCore=10 chemical core electrons
MP2 will be done in the AO integral direct mode
The Q1-step will be done using symmetric double matrices
Dimension of the basis                    ...  322
Memory devoted for MP2                    ... 2000 MB   
Memory needed for all in one shot         ...  384 MB
Number of MOs that can be treated together...   14      
MP2 density construction                  ... unrelaxed
Total number of MOs              ...   13
Number of MOs treated per batch  ...    3 
Number of batches necessary      ...    1 
OPERATORS   0/  0 PASS   0
-----------------------------------------------
 MP2 CORRELATION ENERGY   :     -0.881660782 Eh
-----------------------------------------------


---------------------
MP2 DENSITY FORMATION
---------------------

Completing the external part of the density      ... done
Storing the unrelaxed density                    ... done


                *********************************************
                * UNRELAXED MP2 DENSITY POPULATION ANALYSIS *
                *********************************************

------------------------------------------------------------------------------
                           ORCA POPULATION ANALYSIS
------------------------------------------------------------------------------
Input electron density              ... furan_MP2.pmp2ur
BaseName (.gbw .S,...)              ... furan_MP2

                    ********************************
                    * MULLIKEN POPULATION ANALYSIS *
                    ********************************

-----------------------
MULLIKEN ATOMIC CHARGES
-----------------------
   0 C :   -0.520443
   1 O :   -0.260650
   2 C :   -0.482946
   3 C :   -0.552031
   4 C :   -0.552061
   5 H :    0.685148
   6 H :    0.731341
   7 H :    0.483873
   8 H :    0.467767
Sum of atomic charges:    0.0000000

--------------------------------
MULLIKEN REDUCED ORBITAL CHARGES
--------------------------------
  0 C s       :     3.695503  s :     3.695503
      pz      :     0.963345  p :     2.680055
      px      :     1.092194
      py      :     0.624516
      dz2     :     0.005926  d :     0.103408
      dxz     :     0.003974
      dyz     :     0.056997
      dx2y2   :     0.021815
      dxy     :     0.014696
      f0      :     0.003538  f :     0.041477
      f+1     :     0.001015
      f-1     :     0.001696
      f+2     :     0.005261
      f-2     :     0.005822
      f+3     :     0.006789
      f-3     :     0.017355
  1 O s       :     3.853190  s :     3.853190
      pz      :     1.663888  p :     4.288747
      px      :     1.271233
      py      :     1.353625
      dz2     :     0.001886  d :     0.105812
      dxz     :     0.030009
      dyz     :     0.023587
      dx2y2   :     0.030033
      dxy     :     0.020297
      f0      :     0.001681  f :     0.012901
      f+1     :     0.000751
      f-1     :     0.000559
      f+2     :     0.003067
      f-2     :     0.001188
      f+3     :     0.002808
      f-3     :     0.002847
  2 C s       :     3.641516  s :     3.641516
      pz      :     0.965252  p :     2.693494
      px      :     0.646446
      py      :     1.081795
      dz2     :     0.005658  d :     0.106638
      dxz     :     0.045882
      dyz     :     0.015516
      dx2y2   :     0.020397
      dxy     :     0.019184
      f0      :     0.003560  f :     0.041298
      f+1     :     0.001460
      f-1     :     0.001161
      f+2     :     0.010398
      f-2     :     0.000484
      f+3     :     0.001711
      f-3     :     0.022524
  3 C s       :     3.245838  s :     3.245838
      pz      :     1.025046  p :     3.159177
      px      :     1.034290
      py      :     1.099841
      dz2     :     0.011537  d :     0.153298
      dxz     :     0.026341
      dyz     :     0.023780
      dx2y2   :     0.073189
      dxy     :     0.018449
      f0      :     0.002253  f :    -0.006282
      f+1     :     0.001392
      f-1     :     0.001657
      f+2     :    -0.000063
      f-2     :     0.002925
      f+3     :    -0.016992
      f-3     :     0.002547
  4 C s       :     3.226860  s :     3.226860
      pz      :     1.022708  p :     3.186500
      px      :     1.127526
      py      :     1.036266
      dz2     :     0.012063  d :     0.144583
      dxz     :     0.018549
      dyz     :     0.030549
      dx2y2   :     0.097193
      dxy     :    -0.013771
      f0      :     0.002152  f :    -0.005882
      f+1     :     0.001212
      f-1     :     0.001747
      f+2     :     0.001302
      f-2     :     0.001440
      f+3     :    -0.016550
      f-3     :     0.002814
  5 H s       :     0.328239  s :     0.328239
      pz      :     0.004254  p :    -0.012597
      px      :    -0.007742
      py      :    -0.009110
      dz2     :    -0.001739  d :    -0.000791
      dxz     :     0.001457
      dyz     :     0.000784
      dx2y2   :     0.000046
      dxy     :    -0.001337
  6 H s       :     0.285190  s :     0.285190
      pz      :     0.004260  p :    -0.015967
      px      :    -0.012853
      py      :    -0.007374
      dz2     :    -0.001755  d :    -0.000564
      dxz     :     0.001251
      dyz     :     0.001001
      dx2y2   :    -0.001523
      dxy     :     0.000463
  7 H s       :     0.482782  s :     0.482782
      pz      :     0.020132  p :     0.033125
      px      :     0.010088
      py      :     0.002906
      dz2     :    -0.002616  d :     0.000219
      dxz     :     0.000084
      dyz     :     0.002916
      dx2y2   :    -0.001105
      dxy     :     0.000941
  8 H s       :     0.487296  s :     0.487296
      pz      :     0.019356  p :     0.044291
      px      :     0.008557
      py      :     0.016377
      dz2     :    -0.002630  d :     0.000646
      dxz     :     0.002489
      dyz     :     0.000436
      dx2y2   :    -0.000155
      dxy     :     0.000506


                     *******************************
                     * LOEWDIN POPULATION ANALYSIS *
                     *******************************

----------------------
LOEWDIN ATOMIC CHARGES
----------------------
   0 C :   -0.048299
   1 O :    0.555765
   2 C :   -0.047910
   3 C :    0.153766
   4 C :    0.154108
   5 H :   -0.190865
   6 H :   -0.190730
   7 H :   -0.192887
   8 H :   -0.192948

-------------------------------
LOEWDIN REDUCED ORBITAL CHARGES
-------------------------------
  0 C s       :     2.496457  s :     2.496457
      pz      :     0.621725  p :     2.197232
      px      :     0.877451
      py      :     0.698056
      dz2     :     0.084244  d :     0.867233
      dxz     :     0.072123
      dyz     :     0.175057
      dx2y2   :     0.316261
      dxy     :     0.219548
      f0      :     0.036123  f :     0.487377
      f+1     :     0.027311
      f-1     :     0.040244
      f+2     :     0.055475
      f-2     :     0.057708
      f+3     :     0.138088
      f-3     :     0.132428
  1 O s       :     2.981061  s :     2.981061
      pz      :     1.288142  p :     3.801215
      px      :     1.223540
      py      :     1.289533
      dz2     :     0.052136  d :     0.513693
      dxz     :     0.092026
      dyz     :     0.070870
      dx2y2   :     0.132831
      dxy     :     0.165829
      f0      :     0.009304  f :     0.148267
      f+1     :     0.010262
      f-1     :     0.009230
      f+2     :     0.032711
      f-2     :     0.005000
      f+3     :     0.029147
      f-3     :     0.052614
  2 C s       :     2.496340  s :     2.496340
      pz      :     0.621895  p :     2.197296
      px      :     0.678408
      py      :     0.896993
      dz2     :     0.084245  d :     0.866983
      dxz     :     0.153940
      dyz     :     0.093113
      dx2y2   :     0.248715
      dxy     :     0.286970
      f0      :     0.036113  f :     0.487291
      f+1     :     0.039443
      f-1     :     0.028097
      f+2     :     0.094727
      f-2     :     0.018401
      f+3     :     0.106888
      f-3     :     0.163622
  3 C s       :     2.498286  s :     2.498286
      pz      :     0.628997  p :     2.293220
      px      :     0.815520
      py      :     0.848702
      dz2     :     0.074026  d :     0.704806
      dxz     :     0.133755
      dyz     :     0.055254
      dx2y2   :     0.259724
      dxy     :     0.182047
      f0      :     0.021987  f :     0.349922
      f+1     :     0.028024
      f-1     :     0.026196
      f+2     :     0.011458
      f-2     :     0.073528
      f+3     :     0.116389
      f-3     :     0.072341
  4 C s       :     2.498236  s :     2.498236
      pz      :     0.628989  p :     2.293024
      px      :     0.837280
      py      :     0.826755
      dz2     :     0.074044  d :     0.704702
      dxz     :     0.072452
      dyz     :     0.116558
      dx2y2   :     0.249170
      dxy     :     0.192478
      f0      :     0.021982  f :     0.349929
      f+1     :     0.025567
      f-1     :     0.028664
      f+2     :     0.036714
      f-2     :     0.048269
      f+3     :     0.097039
      f-3     :     0.091693
  5 H s       :     0.699422  s :     0.699422
      pz      :     0.090595  p :     0.290613
      px      :     0.139886
      py      :     0.060133
      dz2     :     0.022591  d :     0.200830
      dxz     :     0.061186
      dyz     :     0.007024
      dx2y2   :     0.048612
      dxy     :     0.061417
  6 H s       :     0.699317  s :     0.699317
      pz      :     0.090614  p :     0.290594
      px      :     0.073059
      py      :     0.126920
      dz2     :     0.022588  d :     0.200820
      dxz     :     0.014702
      dyz     :     0.053529
      dx2y2   :     0.064860
      dxy     :     0.045141
  7 H s       :     0.687187  s :     0.687187
      pz      :     0.091988  p :     0.300737
      px      :     0.067490
      py      :     0.141259
      dz2     :     0.020760  d :     0.204963
      dxz     :     0.004254
      dyz     :     0.062186
      dx2y2   :     0.043358
      dxy     :     0.074405
  8 H s       :     0.687149  s :     0.687149
      pz      :     0.091939  p :     0.300793
      px      :     0.135595
      py      :     0.073260
      dz2     :     0.020769  d :     0.205005
      dxz     :     0.053846
      dyz     :     0.012593
      dx2y2   :     0.052049
      dxy     :     0.065748


                      *****************************
                      * MAYER POPULATION ANALYSIS *
                      *****************************

  NA   - Mulliken gross atomic population
  ZA   - Total nuclear charge
  QA   - Mulliken gross atomic charge
  VA   - Mayer's total valence
  BVA  - Mayer's bonded valence
  FA   - Mayer's free valence

  ATOM       NA         ZA         QA         VA         BVA        FA
  0 C      6.5204     6.0000    -0.5204     3.0296     2.6665     0.3631
  1 O      8.2606     8.0000    -0.2606     2.1410     1.6810     0.4600
  2 C      6.4829     6.0000    -0.4829     3.0439     2.6820     0.3619
  3 C      6.5520     6.0000    -0.5520     3.3790     2.9981     0.3810
  4 C      6.5521     6.0000    -0.5521     3.4066     3.0249     0.3818
  5 H      0.3149     1.0000     0.6851     0.4557     0.4109     0.0448
  6 H      0.2687     1.0000     0.7313     0.3727     0.3294     0.0433
  7 H      0.5161     1.0000     0.4839     0.8257     0.7714     0.0543
  8 H      0.5322     1.0000     0.4678     0.8648     0.8103     0.0546

  Mayer bond orders larger than 0.100000
B(  0-C ,  1-O ) :   0.9562 B(  0-C ,  3-C ) :   1.2046 B(  0-C ,  5-H ) :   0.4512 
B(  1-O ,  2-C ) :   0.9646 B(  2-C ,  4-C ) :   1.2347 B(  2-C ,  6-H ) :   0.3744 
B(  3-C ,  4-C ) :   1.1079 B(  3-C ,  7-H ) :   0.8069 B(  4-C ,  8-H ) :   0.8287 



---------------------------------------
MP2 TOTAL ENERGY:     -229.592515292 Eh
---------------------------------------

Maximum memory used throughout the entire MP2-calculation: 574.8 MB

-------------------------   --------------------
FINAL SINGLE POINT ENERGY      -229.592515292350
-------------------------   --------------------


                            ***************************************
                            *     ORCA property calculations      *
                            ***************************************

                                    ---------------------
                                    Active property flags
                                    ---------------------
   (+) Dipole Moment


------------------------------------------------------------------------------
                       ORCA ELECTRIC PROPERTIES CALCULATION
------------------------------------------------------------------------------

Dipole Moment Calculation                       ... on
Quadrupole Moment Calculation                   ... off
Polarizability Calculation                      ... off
GBWName                                         ... furan_MP2.gbw
Electron density                                ... furan_MP2.scfp
The origin for moment calculation is the CENTER OF MASS  = ( 1.268796,  1.767421 -0.000000)

-------------
DIPOLE MOMENT
-------------
                                X             Y             Z
Electronic contribution:     -0.93879      -1.30667       0.00000
Nuclear contribution   :      1.10741       1.54133       0.00000
                        -----------------------------------------
Total Dipole Moment    :      0.16862       0.23466       0.00000
                        -----------------------------------------
Magnitude (a.u.)       :      0.28896
Magnitude (Debye)      :      0.73448



--------------------
Rotational spectrum 
--------------------
 
Rotational constants in cm-1:     0.319544     0.312682     0.158038 
Rotational constants in MHz :  9579.689039  9373.969929  4737.856534 

 Dipole components along the rotational axes: 
x,y,z [a.u.] :     0.288962    -0.000150     0.000000 
x,y,z [Debye]:     0.734483    -0.000381     0.000000 

 

                         *** MP2 UNRELAXED DENSITY ***

------------------------------------------------------------------------------
                       ORCA ELECTRIC PROPERTIES CALCULATION
------------------------------------------------------------------------------

Dipole Moment Calculation                       ... on
Quadrupole Moment Calculation                   ... off
Polarizability Calculation                      ... off
GBWName                                         ... furan_MP2.gbw
Electron density                                ... furan_MP2.pmp2ur
The origin for moment calculation is the CENTER OF MASS  = ( 1.268796,  1.767421 -0.000000)

-------------
DIPOLE MOMENT
-------------
                                X             Y             Z
Electronic contribution:     -0.95269      -1.32599       0.00000
Nuclear contribution   :      1.10741       1.54133       0.00000
                        -----------------------------------------
Total Dipole Moment    :      0.15472       0.21534       0.00000
                        -----------------------------------------
Magnitude (a.u.)       :      0.26516
Magnitude (Debye)      :      0.67397



--------------------
Rotational spectrum 
--------------------
 
Rotational constants in cm-1:     0.319544     0.312682     0.158038 
Rotational constants in MHz :  9579.689039  9373.969929  4737.856534 

 Dipole components along the rotational axes: 
x,y,z [a.u.] :     0.265156    -0.000147     0.000000 
x,y,z [Debye]:     0.673974    -0.000374     0.000000 

 

Timings for individual modules:

Sum of individual times         ...      119.335 sec (=   1.989 min)
GTO integral calculation        ...        0.327 sec (=   0.005 min)   0.3 %
SCF iterations                  ...       23.502 sec (=   0.392 min)  19.7 %
MP2 module                      ...       95.506 sec (=   1.592 min)  80.0 %
                             ****ORCA TERMINATED NORMALLY****
TOTAL RUN TIME: 0 days 0 hours 1 minutes 59 seconds 583 msec
