
                                 *****************
                                 * O   R   C   A *
                                 *****************

                                            #,                                       
                                            ###                                      
                                            ####                                     
                                            #####                                    
                                            ######                                   
                                           ########,                                 
                                     ,,################,,,,,                         
                               ,,#################################,,                 
                          ,,##########################################,,             
                       ,#########################################, ''#####,          
                    ,#############################################,,   '####,        
                  ,##################################################,,,,####,       
                ,###########''''           ''''###############################       
              ,#####''   ,,,,##########,,,,          '''####'''          '####       
            ,##' ,,,,###########################,,,                        '##       
           ' ,,###''''                  '''############,,,                           
         ,,##''                                '''############,,,,        ,,,,,,###''
      ,#''                                            '''#######################'''  
     '                                                          ''''####''''         
             ,#######,   #######,   ,#######,      ##                                
            ,#'     '#,  ##    ##  ,#'     '#,    #''#        ######   ,####,        
            ##       ##  ##   ,#'  ##            #'  '#       #        #'  '#        
            ##       ##  #######   ##           ,######,      #####,   #    #        
            '#,     ,#'  ##    ##  '#,     ,#' ,#      #,         ##   #,  ,#        
             '#######'   ##     ##  '#######'  #'      '#     #####' # '####'        



                  #######################################################
                  #                        -***-                        #
                  #          Department of theory and spectroscopy      #
                  #    Directorship and core code : Frank Neese         #
                  #        Max Planck Institute fuer Kohlenforschung    #
                  #                Kaiser Wilhelm Platz 1               #
                  #                 D-45470 Muelheim/Ruhr               #
                  #                      Germany                        #
                  #                                                     #
                  #                  All rights reserved                #
                  #                        -***-                        #
                  #######################################################


                         Program Version 5.0.1 -  RELEASE  -


 With contributions from (in alphabetic order):
   Daniel Aravena         : Magnetic Suceptibility
   Michael Atanasov       : Ab Initio Ligand Field Theory (pilot matlab implementation)
   Alexander A. Auer      : GIAO ZORA, VPT2 properties, NMR spectrum
   Ute Becker             : Parallelization
   Giovanni Bistoni       : ED, misc. LED, open-shell LED, HFLD
   Martin Brehm           : Molecular dynamics
   Dmytro Bykov           : SCF Hessian
   Vijay G. Chilkuri      : MRCI spin determinant printing, contributions to CSF-ICE
   Dipayan Datta          : RHF DLPNO-CCSD density
   Achintya Kumar Dutta   : EOM-CC, STEOM-CC
   Dmitry Ganyushin       : Spin-Orbit,Spin-Spin,Magnetic field MRCI
   Miquel Garcia          : C-PCM and meta-GGA Hessian, CC/C-PCM, Gaussian charge scheme
   Yang Guo               : DLPNO-NEVPT2, F12-NEVPT2, CIM, IAO-localization
   Andreas Hansen         : Spin unrestricted coupled pair/coupled cluster methods
   Benjamin Helmich-Paris : MC-RPA, TRAH-SCF, COSX integrals
   Lee Huntington         : MR-EOM, pCC
   Robert Izsak           : Overlap fitted RIJCOSX, COSX-SCS-MP3, EOM
   Marcus Kettner         : VPT2
   Christian Kollmar      : KDIIS, OOCD, Brueckner-CCSD(T), CCSD density, CASPT2, CASPT2-K
   Simone Kossmann        : Meta GGA functionals, TD-DFT gradient, OOMP2, MP2 Hessian
   Martin Krupicka        : Initial AUTO-CI
   Lucas Lang             : DCDCAS
   Marvin Lechner         : AUTO-CI (C++ implementation), FIC-MRCC
   Dagmar Lenk            : GEPOL surface, SMD
   Dimitrios Liakos       : Extrapolation schemes; Compound Job, initial MDCI parallelization
   Dimitrios Manganas     : Further ROCIS development; embedding schemes
   Dimitrios Pantazis     : SARC Basis sets
   Anastasios Papadopoulos: AUTO-CI, single reference methods and gradients
   Taras Petrenko         : DFT Hessian,TD-DFT gradient, ASA, ECA, R-Raman, ABS, FL, XAS/XES, NRVS
   Peter Pinski           : DLPNO-MP2, DLPNO-MP2 Gradient
   Christoph Reimann      : Effective Core Potentials
   Marius Retegan         : Local ZFS, SOC
   Christoph Riplinger    : Optimizer, TS searches, QM/MM, DLPNO-CCSD(T), (RO)-DLPNO pert. Triples
   Tobias Risthaus        : Range-separated hybrids, TD-DFT gradient, RPA, STAB
   Michael Roemelt        : Original ROCIS implementation
   Masaaki Saitow         : Open-shell DLPNO-CCSD energy and density
   Barbara Sandhoefer     : DKH picture change effects
   Avijit Sen             : IP-ROCIS
   Kantharuban Sivalingam : CASSCF convergence, NEVPT2, FIC-MRCI
   Bernardo de Souza      : ESD, SOC TD-DFT
   Georgi Stoychev        : AutoAux, RI-MP2 NMR, DLPNO-MP2 response
   Willem Van den Heuvel  : Paramagnetic NMR
   Boris Wezisla          : Elementary symmetry handling
   Frank Wennmohs         : Technical directorship


 We gratefully acknowledge several colleagues who have allowed us to
 interface, adapt or use parts of their codes:
   Stefan Grimme, W. Hujo, H. Kruse, P. Pracht,  : VdW corrections, initial TS optimization,
                  C. Bannwarth, S. Ehlert          DFT functionals, gCP, sTDA/sTD-DF
   Ed Valeev, F. Pavosevic, A. Kumar             : LibInt (2-el integral package), F12 methods
   Garnet Chan, S. Sharma, J. Yang, R. Olivares  : DMRG
   Ulf Ekstrom                                   : XCFun DFT Library
   Mihaly Kallay                                 : mrcc  (arbitrary order and MRCC methods)
   Jiri Pittner, Ondrej Demel                    : Mk-CCSD
   Frank Weinhold                                : gennbo (NPA and NBO analysis)
   Christopher J. Cramer and Donald G. Truhlar   : smd solvation model
   Lars Goerigk                                  : TD-DFT with DH, B97 family of functionals
   V. Asgeirsson, H. Jonsson                     : NEB implementation
   FAccTs GmbH                                   : IRC, NEB, NEB-TS, DLPNO-Multilevel, CI-OPT
                                                   MM, QMMM, 2- and 3-layer-ONIOM, Crystal-QMMM,
                                                   LR-CPCM, SF, NACMEs, symmetry and pop. for TD-DFT,
                                                   nearIR, NL-DFT gradient (VV10), updates on ESD,
                                                   ML-optimized integration grids
   S Lehtola, MJT Oliveira, MAL Marques          : LibXC Library
   Liviu Ungur et al                             : ANISO software


 Your calculation uses the libint2 library for the computation of 2-el integrals
 For citations please refer to: http://libint.valeyev.net

 Your ORCA version has been built with support for libXC version: 5.1.0
 For citations please refer to: https://tddft.org/programs/libxc/

 This ORCA versions uses:
   CBLAS   interface :  Fast vector & matrix operations
   LAPACKE interface :  Fast linear algebra routines
   SCALAPACK package :  Parallel linear algebra routines
   Shared memory     :  Shared parallel matrices
   BLAS/LAPACK       :  OpenBLAS 0.3.15  USE64BITINT DYNAMIC_ARCH NO_AFFINITY Zen SINGLE_THREADED
        Core in use  :  Zen
   Copyright (c) 2011-2014, The OpenBLAS Project




***************************************
The coordinates will be read from file: carbon_monoxide.xyz
***************************************


================================================================================

----- Orbital basis set information -----
Your calculation utilizes the basis: def2-TZVP
   F. Weigend and R. Ahlrichs, Phys. Chem. Chem. Phys. 7, 3297 (2005).

----- AuxJ basis set information -----
Your calculation utilizes the auxiliary basis: def2/J
   F. Weigend, Phys. Chem. Chem. Phys. 8, 1057 (2006).

================================================================================
                                        WARNINGS
                       Please study these warnings very carefully!
================================================================================


WARNING: Geometry Optimization
  ===> : Switching off AutoStart
         For restart on a previous wavefunction, please use MOREAD

INFO   : the flag for use of the SHARK integral package has been found!

================================================================================
                                       INPUT FILE
================================================================================
NAME = carbon_monoxide_OPT.inp
|  1> 
|  2> %pal
|  3>   nprocs 6
|  4> end
|  5> %maxcore 2000
|  6> 
|  7> ! PBE0 def2-TZVP TightOPT Freq
|  8> ! RIJCOSX def2/J
|  9> 
| 10> * xyzfile 0 1 carbon_monoxide.xyz
| 11> 
| 12> 
| 13>                          ****END OF INPUT****
================================================================================

                       *****************************
                       * Geometry Optimization Run *
                       *****************************

Geometry optimization settings:
Update method            Update   .... BFGS
Choice of coordinates    CoordSys .... Z-matrix Internals
Initial Hessian          InHess   .... Almoef's Model

Convergence Tolerances:
Energy Change            TolE     ....  1.0000e-06 Eh
Max. Gradient            TolMAXG  ....  1.0000e-04 Eh/bohr
RMS Gradient             TolRMSG  ....  3.0000e-05 Eh/bohr
Max. Displacement        TolMAXD  ....  1.0000e-03 bohr
RMS Displacement         TolRMSD  ....  6.0000e-04 bohr
Strict Convergence                ....  False
------------------------------------------------------------------------------
                        ORCA OPTIMIZATION COORDINATE SETUP
------------------------------------------------------------------------------

The optimization will be done in new redundant internal coordinates
Making redundant internal coordinates   ...  (new redundants) done
Evaluating the initial hessian          ...  (Almloef) done
Evaluating the coordinates              ...  done
Calculating the B-matrix                .... done
Calculating the G-matrix                .... done
Diagonalizing the G-matrix              .... done
The first mode is                       ....    0
The number of degrees of freedom        ....    1

    -----------------------------------------------------------------
                    Redundant Internal Coordinates


    -----------------------------------------------------------------
         Definition                    Initial Value    Approx d2E/dq
    -----------------------------------------------------------------
      1. B(O   1,C   0)                  1.1234         1.490011   
    -----------------------------------------------------------------

Number of atoms                         .... 2
Number of degrees of freedom            .... 1

         *************************************************************
         *                GEOMETRY OPTIMIZATION CYCLE   1            *
         *************************************************************
---------------------------------
CARTESIAN COORDINATES (ANGSTROEM)
---------------------------------
  C    -27.875039   12.166670    0.000000
  O    -26.751621   12.166670    0.000000

----------------------------
CARTESIAN COORDINATES (A.U.)
----------------------------
  NO LB      ZA    FRAG     MASS         X           Y           Z
   0 C     6.0000    0    12.011  -52.676190   22.991674    0.000000
   1 O     8.0000    0    15.999  -50.553237   22.991674    0.000000

--------------------------------
INTERNAL COORDINATES (ANGSTROEM)
--------------------------------
 C      0   0   0     0.000000000000     0.00000000     0.00000000
 O      1   0   0     1.123418290694     0.00000000     0.00000000

---------------------------
INTERNAL COORDINATES (A.U.)
---------------------------
 C      0   0   0     0.000000000000     0.00000000     0.00000000
 O      1   0   0     2.122952903250     0.00000000     0.00000000

---------------------
BASIS SET INFORMATION
---------------------
There are 2 groups of distinct atoms

 Group   1 Type C   : 11s6p2d1f contracted to 5s3p2d1f pattern {62111/411/11/1}
 Group   2 Type O   : 11s6p2d1f contracted to 5s3p2d1f pattern {62111/411/11/1}

Atom   0C    basis set group =>   1
Atom   1O    basis set group =>   2
---------------------------------
AUXILIARY/J BASIS SET INFORMATION
---------------------------------
There are 2 groups of distinct atoms

 Group   1 Type C   : 12s5p4d2f1g contracted to 6s4p3d1f1g pattern {711111/2111/211/2/1}
 Group   2 Type O   : 12s5p4d2f1g contracted to 6s4p3d1f1g pattern {711111/2111/211/2/1}

Atom   0C    basis set group =>   1
Atom   1O    basis set group =>   2


           ************************************************************
           *        Program running with 6 parallel MPI-processes     *
           *              working on a common directory               *
           ************************************************************
------------------------------------------------------------------------------
                           ORCA GTO INTEGRAL CALCULATION
                           -- RI-GTO INTEGRALS CHOSEN --
------------------------------------------------------------------------------
------------------------------------------------------------------------------
                   ___                                                        
                  /   \      - P O W E R E D   B Y -                         
                 /     \                                                     
                 |  |  |   _    _      __       _____    __    __             
                 |  |  |  | |  | |    /  \     |  _  \  |  |  /  |          
                  \  \/   | |  | |   /    \    | | | |  |  | /  /          
                 / \  \   | |__| |  /  /\  \   | |_| |  |  |/  /          
                |  |  |   |  __  | /  /__\  \  |    /   |      \           
                |  |  |   | |  | | |   __   |  |    \   |  |\   \          
                \     /   | |  | | |  |  |  |  | |\  \  |  | \   \       
                 \___/    |_|  |_| |__|  |__|  |_| \__\ |__|  \__/        
                                                                              
                      - O R C A' S   B I G   F R I E N D -                    
                                      &                                       
                       - I N T E G R A L  F E E D E R -                       
                                                                              
 v1 FN, 2020, v2 2021                                                         
------------------------------------------------------------------------------


Reading SHARK input file carbon_monoxide_OPT.SHARKINP.tmp ... ok
----------------------
SHARK INTEGRAL PACKAGE
----------------------

Number of atoms                             ...      2
Number of basis functions                   ...     62
Number of shells                            ...     22
Maximum angular momentum                    ...      3
Integral batch strategy                     ... SHARK/LIBINT Hybrid
RI-J (if used) integral strategy            ... SPLIT-RIJ (Revised 2003 algorithm where possible)
Printlevel                                  ...      1
Contraction scheme used                     ... SEGMENTED contraction
Coulomb Range Separation                    ... NOT USED
Exchange Range Separation                   ... NOT USED
Finite Nucleus Model                        ... NOT USED
Auxiliary Coulomb fitting basis             ... AVAILABLE
   # of basis functions in Aux-J            ...     98
   # of shells in Aux-J                     ...     30
   Maximum angular momentum in Aux-J        ...      4
Auxiliary J/K fitting basis                 ... NOT available
Auxiliary Correlation fitting basis         ... NOT available
Auxiliary 'external' fitting basis          ... NOT available
Integral threshold                          ...     2.500000e-11
Primitive cut-off                           ...     2.500000e-12
Primitive pair pre-selection threshold      ...     2.500000e-12

Calculating pre-screening integrals         ... done (  0.0 sec) Dimension = 22
Organizing shell pair data                  ... done (  0.0 sec)
Shell pair information
Total number of shell pairs                 ...       253
Shell pairs after pre-screening             ...       252
Total number of primitive shell pairs       ...       864
Primitive shell pairs kept                  ...       796
          la=0 lb=0:     54 shell pairs
          la=1 lb=0:     60 shell pairs
          la=1 lb=1:     21 shell pairs
          la=2 lb=0:     40 shell pairs
          la=2 lb=1:     24 shell pairs
          la=2 lb=2:     10 shell pairs
          la=3 lb=0:     20 shell pairs
          la=3 lb=1:     12 shell pairs
          la=3 lb=2:      8 shell pairs
          la=3 lb=3:      3 shell pairs

Calculating one electron integrals          ... done (  0.0 sec)
Calculating RI/J V-Matrix + Cholesky decomp.... done (  0.0 sec)
Calculating Nuclear repulsion               ... done (  0.0 sec) ENN=     22.610016419354 Eh

SHARK setup successfully completed in   0.1 seconds

Maximum memory used throughout the entire GTOINT-calculation: 13.7 MB


           ************************************************************
           *        Program running with 6 parallel MPI-processes     *
           *              working on a common directory               *
           ************************************************************
-------------------------------------------------------------------------------
                                 ORCA SCF
-------------------------------------------------------------------------------

------------
SCF SETTINGS
------------
Hamiltonian:
 Density Functional     Method          .... DFT(GTOs)
 Exchange Functional    Exchange        .... PBE
   PBE kappa parameter   XKappa         ....  0.804000
   PBE mue parameter    XMuePBE         ....  0.219520
 Correlation Functional Correlation     .... PBE
   PBE beta parameter  CBetaPBE         ....  0.066725
 LDA part of GGA corr.  LDAOpt          .... PW91-LDA
 Gradients option       PostSCFGGA      .... off
 Hybrid DFT is turned on
   Fraction HF Exchange ScalHFX         ....  0.250000
   Scaling of DF-GGA-X  ScalDFX         ....  0.750000
   Scaling of DF-GGA-C  ScalDFC         ....  1.000000
   Scaling of DF-LDA-C  ScalLDAC        ....  1.000000
   Perturbative correction              ....  0.000000
   Density functional embedding theory  .... OFF
   NL short-range parameter             ....  6.900000
 RI-approximation to the Coulomb term is turned on
   Number of AuxJ basis functions       .... 98
   RIJ-COSX (HFX calculated with COS-X)).... on


General Settings:
 Integral files         IntName         .... carbon_monoxide_OPT
 Hartree-Fock type      HFTyp           .... RHF
 Total Charge           Charge          ....    0
 Multiplicity           Mult            ....    1
 Number of Electrons    NEL             ....   14
 Basis Dimension        Dim             ....   62
 Nuclear Repulsion      ENuc            ....     22.6100164194 Eh

Convergence Acceleration:
 DIIS                   CNVDIIS         .... on
   Start iteration      DIISMaxIt       ....    12
   Startup error        DIISStart       ....  0.200000
   # of expansion vecs  DIISMaxEq       ....     5
   Bias factor          DIISBfac        ....   1.050
   Max. coefficient     DIISMaxC        ....  10.000
 Trust-Rad. Augm. Hess. CNVTRAH         .... auto
   Auto Start mean grad. ratio tolernc. ....  1.125000
   Auto Start start iteration           ....    20
   Auto Start num. interpolation iter.  ....    10
   Max. Number of Micro iterations      ....    16
   Max. Number of Macro iterations      .... Maxiter - #DIIS iter
   Number of Davidson start vectors     ....     2
   Converg. threshold I  (grad. norm)   ....   1.000e-05
   Converg. threshold II (energy diff.) ....   1.000e-08
   Grad. Scal. Fac. for Micro threshold ....   0.100
   Minimum threshold for Micro iter.    ....   0.010
   NR start threshold (gradient norm)   ....   0.001
   Initial trust radius                 ....   0.400
   Minimum AH scaling param. (alpha)    ....   1.000
   Maximum AH scaling param. (alpha)    .... 1000.000
   Orbital update algorithm             .... Taylor
   White noise on init. David. guess    .... on
   Maximum white noise                  ....   0.010
   Quad. conv. algorithm                .... NR
 SOSCF                  CNVSOSCF        .... on
   Start iteration      SOSCFMaxIt      ....   150
   Startup grad/error   SOSCFStart      ....  0.003300
 Level Shifting         CNVShift        .... on
   Level shift para.    LevelShift      ....    0.2500
   Turn off err/grad.   ShiftErr        ....    0.0010
 Zerner damping         CNVZerner       .... off
 Static damping         CNVDamp         .... on
   Fraction old density DampFac         ....    0.7000
   Max. Damping (<1)    DampMax         ....    0.9800
   Min. Damping (>=0)   DampMin         ....    0.0000
   Turn off err/grad.   DampErr         ....    0.1000
 Fernandez-Rico         CNVRico         .... off

SCF Procedure:
 Maximum # iterations   MaxIter         ....   125
 SCF integral mode      SCFMode         .... Direct
   Integral package                     .... SHARK and LIBINT hybrid scheme
 Reset frequency        DirectResetFreq ....    20
 Integral Threshold     Thresh          ....  2.500e-11 Eh
 Primitive CutOff       TCut            ....  2.500e-12 Eh

Convergence Tolerance:
 Convergence Check Mode ConvCheckMode   .... Total+1el-Energy
 Convergence forced     ConvForced      .... 0
 Energy Change          TolE            ....  1.000e-08 Eh
 1-El. energy change                    ....  1.000e-05 Eh
 Orbital Gradient       TolG            ....  1.000e-05
 Orbital Rotation angle TolX            ....  1.000e-05
 DIIS Error             TolErr          ....  5.000e-07


Diagonalization of the overlap matrix:
Smallest eigenvalue                        ... 1.177e-03
Time for diagonalization                   ...    0.001 sec
Threshold for overlap eigenvalues          ... 1.000e-08
Number of eigenvalues below threshold      ... 0
Time for construction of square roots      ...    0.000 sec
Total time needed                          ...    0.001 sec

Time for model grid setup =    0.019 sec

------------------------------
INITIAL GUESS: MODEL POTENTIAL
------------------------------
Loading Hartree-Fock densities                     ... done
Calculating cut-offs                               ... done
Initializing the effective Hamiltonian             ... done
Setting up the integral package (SHARK)            ... done
Starting the Coulomb interaction                   ... done (   0.0 sec)
Reading the grid                                   ... done
Mapping shells                                     ... done
Starting the XC term evaluation                    ... done (   0.0 sec)
  promolecular density results
     # of electrons  =     14.000016148
     EX              =    -13.176856261
     EC              =     -0.445619544
     EX+EC           =    -13.622475805
Transforming the Hamiltonian                       ... done (   0.0 sec)
Diagonalizing the Hamiltonian                      ... done (   0.0 sec)
Back transforming the eigenvectors                 ... done (   0.0 sec)
Now organizing SCF variables                       ... done
                      ------------------
                      INITIAL GUESS DONE (   0.0 sec)
                      ------------------
-------------------
DFT GRID GENERATION
-------------------

General Integration Accuracy     IntAcc      ... 4.388
Radial Grid Type                 RadialGrid  ... OptM3 with GC (2021)
Angular Grid (max. ang.)         AngularGrid ... 4 (Lebedev-302)
Angular grid pruning method      GridPruning ... 4 (adaptive)
Weight generation scheme         WeightScheme... Becke
Basis function cutoff            BFCut       ... 1.0000e-11
Integration weight cutoff        WCut        ... 1.0000e-14
Angular grids for H and He will be reduced by one unit
Partially contracted basis set               ... off
Rotationally invariant grid construction     ... off

Total number of grid points                  ...    12255
Total number of batches                      ...      193
Average number of points per batch           ...       63
Average number of grid points per atom       ...     6128
Time for grid setup =    0.055 sec

--------------------
COSX GRID GENERATION
--------------------

GRIDX 1
-------
General Integration Accuracy     IntAcc      ... 3.816
Radial Grid Type                 RadialGrid  ... OptM3 with GC (2021)
Angular Grid (max. ang.)         AngularGrid ... 1 (Lebedev-50)
Angular grid pruning method      GridPruning ... 4 (adaptive)
Weight generation scheme         WeightScheme... Becke
Basis function cutoff            BFCut       ... 1.0000e-11
Integration weight cutoff        WCut        ... 1.0000e-14
Angular grids for H and He will be reduced by one unit
Partially contracted basis set               ... on
Rotationally invariant grid construction     ... off

Total number of grid points                  ...     1532
Total number of batches                      ...       25
Average number of points per batch           ...       61
Average number of grid points per atom       ...      766
UseSFitting                                  ... on

GRIDX 2
-------
General Integration Accuracy     IntAcc      ... 4.020
Radial Grid Type                 RadialGrid  ... OptM3 with GC (2021)
Angular Grid (max. ang.)         AngularGrid ... 2 (Lebedev-110)
Angular grid pruning method      GridPruning ... 4 (adaptive)
Weight generation scheme         WeightScheme... Becke
Basis function cutoff            BFCut       ... 1.0000e-11
Integration weight cutoff        WCut        ... 1.0000e-14
Angular grids for H and He will be reduced by one unit
Partially contracted basis set               ... on
Rotationally invariant grid construction     ... off

Total number of grid points                  ...     3760
Total number of batches                      ...       60
Average number of points per batch           ...       62
Average number of grid points per atom       ...     1880
UseSFitting                                  ... on

GRIDX 3
-------
General Integration Accuracy     IntAcc      ... 4.338
Radial Grid Type                 RadialGrid  ... OptM3 with GC (2021)
Angular Grid (max. ang.)         AngularGrid ... 3 (Lebedev-194)
Angular grid pruning method      GridPruning ... 4 (adaptive)
Weight generation scheme         WeightScheme... Becke
Basis function cutoff            BFCut       ... 1.0000e-11
Integration weight cutoff        WCut        ... 1.0000e-14
Angular grids for H and He will be reduced by one unit
Partially contracted basis set               ... on
Rotationally invariant grid construction     ... off

Total number of grid points                  ...     8420
Total number of batches                      ...      132
Average number of points per batch           ...       63
Average number of grid points per atom       ...     4210
UseSFitting                                  ... on

Time for X-Grid setup             =    0.045 sec

--------------
SCF ITERATIONS
--------------
ITER       Energy         Delta-E        Max-DP      RMS-DP      [F,P]     Damp
               ***  Starting incremental Fock matrix formation  ***
  0   -113.1965329083   0.000000000000 0.03589819  0.00142712  0.1971403 0.7000
  1   -113.2138740234  -0.017341115062 0.01847715  0.00072160  0.0740000 0.7000
                               ***Turning on DIIS***
  2   -113.2185852471  -0.004711223711 0.01962940  0.00092370  0.0213621 0.0000
  3   -113.2301383624  -0.011553115284 0.01222342  0.00053755  0.0302298 0.0000
  4   -113.2306196703  -0.000481307889 0.00535975  0.00025989  0.0197181 0.0000
  5   -113.2309868728  -0.000367202552 0.00157519  0.00007221  0.0047242 0.0000
                      *** Initiating the SOSCF procedure ***
                           *** Shutting down DIIS ***
                      *** Re-Reading the Fockian *** 
                      *** Removing any level shift *** 
ITER      Energy       Delta-E        Grad      Rot      Max-DP    RMS-DP
  6   -113.23100788  -0.0000210068  0.000182  0.000182  0.000456  0.000020
               *** Restarting incremental Fock matrix formation ***
  7   -113.23101969  -0.0000118102  0.000131  0.000276  0.000299  0.000013
  8   -113.23101945   0.0000002350  0.000260  0.000172  0.000138  0.000007
  9   -113.23101977  -0.0000003134  0.000004  0.000004  0.000007  0.000000
                  ***Gradient check signals convergence***
              ***Rediagonalizing the Fockian in SOSCF/NRSCF***

               *****************************************************
               *                     SUCCESS                       *
               *           SCF CONVERGED AFTER  10 CYCLES          *
               *****************************************************

Old exchange energy                            =     -3.329433315 Eh
New exchange energy                            =     -3.329433283 Eh
Exchange energy change after final integration =      0.000000032 Eh
Total energy after final integration           =   -113.231019736 Eh
Final COS-X integration done in                =     0.107 sec

----------------
TOTAL SCF ENERGY
----------------

Total Energy       :         -113.23101974 Eh           -3081.17269 eV

Components:
Nuclear Repulsion  :           22.61001642 Eh             615.24983 eV
Electronic Energy  :         -135.84103616 Eh           -3696.42252 eV
One Electron Energy:         -198.54163084 Eh           -5402.59244 eV
Two Electron Energy:           62.70059469 Eh            1706.16992 eV
Max COSX asymmetry :            0.00000113 Eh               0.00003 eV

Virial components:
Potential Energy   :         -226.07773330 Eh           -6151.88788 eV
Kinetic Energy     :          112.84671356 Eh            3070.71519 eV
Virial Ratio       :            2.00340556


DFT components:
N(Alpha)           :        7.000002029668 electrons
N(Beta)            :        7.000002029668 electrons
N(Total)           :       14.000004059337 electrons
E(X)               :       -9.993012966215 Eh       
E(C)               :       -0.450069057656 Eh       
E(XC)              :      -10.443082023871 Eh       
DFET-embed. en.    :        0.000000000000 Eh       

---------------
SCF CONVERGENCE
---------------

  Last Energy change         ...    3.9364e-11  Tolerance :   1.0000e-08
  Last MAX-Density change    ...    6.6613e-16  Tolerance :   1.0000e-07
  Last RMS-Density change    ...    3.0066e-17  Tolerance :   5.0000e-09
  Last Orbital Gradient      ...    1.1599e-06  Tolerance :   1.0000e-05
  Last Orbital Rotation      ...    6.7859e-07  Tolerance :   1.0000e-05

             **** THE GBW FILE WAS UPDATED (carbon_monoxide_OPT.gbw) ****
             **** DENSITY carbon_monoxide_OPT.scfp WAS UPDATED ****
             **** ENERGY FILE WAS UPDATED (carbon_monoxide_OPT.en.tmp) ****
             **** THE GBW FILE WAS UPDATED (carbon_monoxide_OPT.gbw) ****
             **** DENSITY carbon_monoxide_OPT.scfp WAS UPDATED ****
----------------
ORBITAL ENERGIES
----------------

  NO   OCC          E(Eh)            E(eV) 
   0   2.0000     -19.313390      -525.5441 
   1   2.0000     -10.339781      -281.3598 
   2   2.0000      -1.199970       -32.6528 
   3   2.0000      -0.598733       -16.2924 
   4   2.0000      -0.497002       -13.5241 
   5   2.0000      -0.497002       -13.5241 
   6   2.0000      -0.393639       -10.7115 
   7   0.0000      -0.022912        -0.6235 
   8   0.0000      -0.022912        -0.6235 
   9   0.0000       0.125195         3.4067 
  10   0.0000       0.194384         5.2895 
  11   0.0000       0.226915         6.1747 
  12   0.0000       0.226915         6.1747 
  13   0.0000       0.374712        10.1964 
  14   0.0000       0.490194        13.3388 
  15   0.0000       0.490194        13.3388 
  16   0.0000       0.591592        16.0980 
  17   0.0000       0.642621        17.4866 
  18   0.0000       0.642625        17.4867 
  19   0.0000       0.709050        19.2942 
  20   0.0000       0.861331        23.4380 
  21   0.0000       0.861331        23.4380 
  22   0.0000       1.193997        32.4903 
  23   0.0000       1.291636        35.1472 
  24   0.0000       1.384864        37.6841 
  25   0.0000       1.384864        37.6841 
  26   0.0000       1.403626        38.1946 
  27   0.0000       1.507962        41.0337 
  28   0.0000       1.507979        41.0342 
  29   0.0000       1.895937        51.5911 
  30   0.0000       1.895937        51.5911 
  31   0.0000       2.190223        59.5990 
  32   0.0000       2.600081        70.7518 
  33   0.0000       2.600081        70.7518 
  34   0.0000       2.637086        71.7588 
  35   0.0000       2.637086        71.7588 
  36   0.0000       2.817948        76.6803 
  37   0.0000       2.817952        76.6804 
  38   0.0000       2.857988        77.7698 
  39   0.0000       2.943477        80.0961 
  40   0.0000       2.943489        80.0964 
  41   0.0000       2.998258        81.5868 
  42   0.0000       2.998258        81.5868 
  43   0.0000       3.092250        84.1444 
  44   0.0000       3.643145        99.1350 
  45   0.0000       3.643145        99.1350 
  46   0.0000       3.833188       104.3064 
  47   0.0000       4.209147       114.5367 
  48   0.0000       5.083403       138.3264 
  49   0.0000       5.083403       138.3264 
  50   0.0000       5.491837       149.4405 
  51   0.0000       5.491881       149.4417 
  52   0.0000       6.201040       168.7389 
  53   0.0000       6.201040       168.7389 
  54   0.0000       6.244127       169.9113 
  55   0.0000       6.244204       169.9134 
  56   0.0000       6.502414       176.9397 
  57   0.0000       6.678524       181.7319 
  58   0.0000       6.678524       181.7319 
  59   0.0000       7.060102       192.1151 
  60   0.0000      21.900670       595.9475 
  61   0.0000      43.566442      1185.5032 

                    ********************************
                    * MULLIKEN POPULATION ANALYSIS *
                    ********************************

-----------------------
MULLIKEN ATOMIC CHARGES
-----------------------
   0 C :   -0.002100
   1 O :    0.002100
Sum of atomic charges:   -0.0000000

--------------------------------
MULLIKEN REDUCED ORBITAL CHARGES
--------------------------------
  0 C s       :     3.865769  s :     3.865769
      pz      :     0.518345  p :     2.011502
      px      :     0.974812
      py      :     0.518345
      dz2     :     0.007823  d :     0.111698
      dxz     :     0.040204
      dyz     :     0.000000
      dx2y2   :     0.023468
      dxy     :     0.040204
      f0      :     0.001845  f :     0.013132
      f+1     :     0.001234
      f-1     :     0.000308
      f+2     :     0.003075
      f-2     :     0.000000
      f+3     :     0.002057
      f-3     :     0.004613
  1 O s       :     3.762243  s :     3.762243
      pz      :     1.423573  p :     4.201834
      px      :     1.354688
      py      :     1.423573
      dz2     :     0.001889  d :     0.031962
      dxz     :     0.012203
      dyz     :     0.000000
      dx2y2   :     0.005668
      dxy     :     0.012203
      f0      :     0.000283  f :     0.001860
      f+1     :     0.000131
      f-1     :     0.000047
      f+2     :     0.000472
      f-2     :    -0.000000
      f+3     :     0.000218
      f-3     :     0.000708


                     *******************************
                     * LOEWDIN POPULATION ANALYSIS *
                     *******************************

----------------------
LOEWDIN ATOMIC CHARGES
----------------------
   0 C :   -0.251664
   1 O :    0.251664

-------------------------------
LOEWDIN REDUCED ORBITAL CHARGES
-------------------------------
  0 C s       :     3.487400  s :     3.487400
      pz      :     0.554189  p :     2.348051
      px      :     1.239674
      py      :     0.554189
      dz2     :     0.037357  d :     0.330016
      dxz     :     0.090293
      dyz     :     0.000000
      dx2y2   :     0.112072
      dxy     :     0.090293
      f0      :     0.011320  f :     0.086197
      f+1     :     0.009685
      f-1     :     0.001887
      f+2     :     0.018866
      f-2     :     0.000000
      f+3     :     0.016141
      f-3     :     0.028299
  1 O s       :     3.427610  s :     3.427610
      pz      :     1.313033  p :     4.255538
      px      :     1.629472
      py      :     1.313033
      dz2     :     0.009205  d :     0.059098
      dxz     :     0.011139
      dyz     :     0.000000
      dx2y2   :     0.027615
      dxy     :     0.011139
      f0      :     0.000435  f :     0.006090
      f+1     :     0.001414
      f-1     :     0.000073
      f+2     :     0.000725
      f-2     :     0.000000
      f+3     :     0.002356
      f-3     :     0.001088


                      *****************************
                      * MAYER POPULATION ANALYSIS *
                      *****************************

  NA   - Mulliken gross atomic population
  ZA   - Total nuclear charge
  QA   - Mulliken gross atomic charge
  VA   - Mayer's total valence
  BVA  - Mayer's bonded valence
  FA   - Mayer's free valence

  ATOM       NA         ZA         QA         VA         BVA        FA
  0 C      6.0021     6.0000    -0.0021     2.4397     2.4397    -0.0000
  1 O      7.9979     8.0000     0.0021     2.4397     2.4397     0.0000

  Mayer bond orders larger than 0.100000
B(  0-C ,  1-O ) :   2.4397 

-------
TIMINGS
-------

Total SCF time: 0 days 0 hours 0 min 1 sec 

Total time                  ....       1.077 sec
Sum of individual times     ....       0.992 sec  ( 92.1%)

Fock matrix formation       ....       0.840 sec  ( 78.0%)
  Split-RI-J                ....       0.149 sec  ( 17.7% of F)
  Chain of spheres X        ....       0.582 sec  ( 69.4% of F)
  XC integration            ....       0.097 sec  ( 11.5% of F)
    Basis function eval.    ....       0.022 sec  ( 22.8% of XC)
    Density eval.           ....       0.015 sec  ( 15.1% of XC)
    XC-Functional eval.     ....       0.010 sec  ( 10.1% of XC)
    XC-Potential eval.      ....       0.018 sec  ( 18.1% of XC)
Diagonalization             ....       0.010 sec  (  1.0%)
Density matrix formation    ....       0.002 sec  (  0.2%)
Population analysis         ....       0.003 sec  (  0.2%)
Initial guess               ....       0.005 sec  (  0.5%)
Orbital Transformation      ....       0.000 sec  (  0.0%)
Orbital Orthonormalization  ....       0.000 sec  (  0.0%)
DIIS solution               ....       0.008 sec  (  0.8%)
SOSCF solution              ....       0.006 sec  (  0.6%)
Grid generation             ....       0.118 sec  ( 11.0%)

Maximum memory used throughout the entire SCF-calculation: 58.0 MB

-------------------------   --------------------
FINAL SINGLE POINT ENERGY      -113.231019736057
-------------------------   --------------------



           ************************************************************
           *        Program running with 6 parallel MPI-processes     *
           *              working on a common directory               *
           ************************************************************
------------------------------------------------------------------------------
                         ORCA SCF GRADIENT CALCULATION
------------------------------------------------------------------------------

 ... reading COSX grid (gridx3)
Gradient of the Kohn-Sham DFT energy:
Kohn-Sham wavefunction type      ... RKS
Hartree-Fock exchange scaling    ...    0.250
Number of operators              ...    1
Number of atoms                  ...    2
Basis set dimensions             ...   62
Integral neglect threshold       ... 2.5e-11
Integral primitive cutoff        ... 2.5e-12
SHARK Integral package           ... ON

Nuc. rep. gradient       (SHARK) ... done (  0.0 sec)
HCore & Overlap gradient (SHARK) ... done (  0.0 sec)
RI-J gradient            (SHARK) ... done (  0.1 sec)
COSX-gradient                    ... done (  0.1 sec)
Exchange-correlation gradient    ... done

------------------
CARTESIAN GRADIENT
------------------

   1   C   :   -0.000035095    0.000000019   -0.000000004
   2   O   :   -0.000032386   -0.000000003   -0.000000010

Difference to translation invariance:
           :   -0.0000674806    0.0000000153   -0.0000000145

Difference to rotation invariance:
           :   -0.0000003345   -0.0000007444    0.0015506819

Norm of the cartesian gradient     ...    0.0000477544
RMS gradient                       ...    0.0000194957
MAX gradient                       ...    0.0000350947

-------
TIMINGS
-------

Total SCF gradient time            ...        0.375 sec

One electron gradient       ....       0.001 sec  (  0.3%)
RI-J Coulomb gradient       ....       0.071 sec  ( 19.1%)
COSX gradient               ....       0.108 sec  ( 28.9%)
XC gradient                 ....       0.023 sec  (  6.1%)

Maximum memory used throughout the entire SCFGRAD-calculation: 33.2 MB
------------------------------------------------------------------------------
                         ORCA GEOMETRY RELAXATION STEP
------------------------------------------------------------------------------

Reading the OPT-File                    .... done
Getting information on internals        .... done
Copying old internal coords+grads       .... done
Making the new internal coordinates     .... (new redundants).... done
Validating the new internal coordinates .... (new redundants).... done
Calculating the B-matrix                .... done
Calculating the G,G- and P matrices     .... done
Transforming gradient to internals      .... done
Projecting the internal gradient        .... done
Number of atoms                         ....   2
Number of internal coordinates          ....   1
Current Energy                          ....  -113.231019736 Eh
Current gradient norm                   ....     0.000047754 Eh/bohr
Maximum allowed component of the step   ....  0.300
Current trust radius                    ....  0.300
Evaluating the initial hessian          ....  (Almloef) done
Projecting the Hessian                  .... done
Forming the augmented Hessian           .... done
Diagonalizing the augmented Hessian     .... done
Last element of RFO vector              ....  1.000000000
Lowest eigenvalues of augmented Hessian:
 -0.000000000
Length of the computed step             ....  0.000000909
The final length of the internal step   ....  0.000000909
Converting the step to cartesian space:
 Initial RMS(Int)=    0.0000009090
Transforming coordinates:
 Iter   0:  RMS(Cart)=    0.0000002624 RMS(Int)=    0.0000009090
 Iter   1:  RMS(Cart)=    0.0000000000 RMS(Int)=    0.0000000000
done
Storing new coordinates                 .... done

                                .--------------------.
          ----------------------|Geometry convergence|-------------------------
          Item                value                   Tolerance       Converged
          ---------------------------------------------------------------------
          RMS gradient        0.0000013544            0.0000300000      YES
          MAX gradient        0.0000013544            0.0001000000      YES
          RMS step            0.0000009090            0.0006000000      YES
          MAX step            0.0000009090            0.0010000000      YES
          ........................................................
          Max(Bonds)      0.0000      Max(Angles)    0.00
          Max(Dihed)        0.00      Max(Improp)    0.00
          ---------------------------------------------------------------------

                    ***********************HURRAY********************
                    ***        THE OPTIMIZATION HAS CONVERGED     ***
                    *************************************************


    ---------------------------------------------------------------------------
                         Redundant Internal Coordinates

                          --- Optimized Parameters ---  
                            (Angstroem and degrees)

        Definition                    OldVal   dE/dq     Step     FinalVal
    ----------------------------------------------------------------------------
     1. B(O   1,C   0)                1.1234  0.000001 -0.0000    1.1234   
    ----------------------------------------------------------------------------
                 *******************************************************
                 *** FINAL ENERGY EVALUATION AT THE STATIONARY POINT ***
                 ***               (AFTER    1 CYCLES)               ***
                 *******************************************************
---------------------------------
CARTESIAN COORDINATES (ANGSTROEM)
---------------------------------
  C    -27.875039   12.166670    0.000000
  O    -26.751621   12.166670    0.000000

----------------------------
CARTESIAN COORDINATES (A.U.)
----------------------------
  NO LB      ZA    FRAG     MASS         X           Y           Z
   0 C     6.0000    0    12.011  -52.676190   22.991674    0.000000
   1 O     8.0000    0    15.999  -50.553238   22.991674    0.000000

--------------------------------
INTERNAL COORDINATES (ANGSTROEM)
--------------------------------
 C      0   0   0     0.000000000000     0.00000000     0.00000000
 O      1   0   0     1.123417809669     0.00000000     0.00000000

---------------------------
INTERNAL COORDINATES (A.U.)
---------------------------
 C      0   0   0     0.000000000000     0.00000000     0.00000000
 O      1   0   0     2.122951994245     0.00000000     0.00000000

---------------------
BASIS SET INFORMATION
---------------------
There are 2 groups of distinct atoms

 Group   1 Type C   : 11s6p2d1f contracted to 5s3p2d1f pattern {62111/411/11/1}
 Group   2 Type O   : 11s6p2d1f contracted to 5s3p2d1f pattern {62111/411/11/1}

Atom   0C    basis set group =>   1
Atom   1O    basis set group =>   2
---------------------------------
AUXILIARY/J BASIS SET INFORMATION
---------------------------------
There are 2 groups of distinct atoms

 Group   1 Type C   : 12s5p4d2f1g contracted to 6s4p3d1f1g pattern {711111/2111/211/2/1}
 Group   2 Type O   : 12s5p4d2f1g contracted to 6s4p3d1f1g pattern {711111/2111/211/2/1}

Atom   0C    basis set group =>   1
Atom   1O    basis set group =>   2


           ************************************************************
           *        Program running with 6 parallel MPI-processes     *
           *              working on a common directory               *
           ************************************************************
------------------------------------------------------------------------------
                           ORCA GTO INTEGRAL CALCULATION
                           -- RI-GTO INTEGRALS CHOSEN --
------------------------------------------------------------------------------
------------------------------------------------------------------------------
                   ___                                                        
                  /   \      - P O W E R E D   B Y -                         
                 /     \                                                     
                 |  |  |   _    _      __       _____    __    __             
                 |  |  |  | |  | |    /  \     |  _  \  |  |  /  |          
                  \  \/   | |  | |   /    \    | | | |  |  | /  /          
                 / \  \   | |__| |  /  /\  \   | |_| |  |  |/  /          
                |  |  |   |  __  | /  /__\  \  |    /   |      \           
                |  |  |   | |  | | |   __   |  |    \   |  |\   \          
                \     /   | |  | | |  |  |  |  | |\  \  |  | \   \       
                 \___/    |_|  |_| |__|  |__|  |_| \__\ |__|  \__/        
                                                                              
                      - O R C A' S   B I G   F R I E N D -                    
                                      &                                       
                       - I N T E G R A L  F E E D E R -                       
                                                                              
 v1 FN, 2020, v2 2021                                                         
------------------------------------------------------------------------------


Reading SHARK input file carbon_monoxide_OPT.SHARKINP.tmp ... ok
----------------------
SHARK INTEGRAL PACKAGE
----------------------

Number of atoms                             ...      2
Number of basis functions                   ...     62
Number of shells                            ...     22
Maximum angular momentum                    ...      3
Integral batch strategy                     ... SHARK/LIBINT Hybrid
RI-J (if used) integral strategy            ... SPLIT-RIJ (Revised 2003 algorithm where possible)
Printlevel                                  ...      1
Contraction scheme used                     ... SEGMENTED contraction
Coulomb Range Separation                    ... NOT USED
Exchange Range Separation                   ... NOT USED
Finite Nucleus Model                        ... NOT USED
Auxiliary Coulomb fitting basis             ... AVAILABLE
   # of basis functions in Aux-J            ...     98
   # of shells in Aux-J                     ...     30
   Maximum angular momentum in Aux-J        ...      4
Auxiliary J/K fitting basis                 ... NOT available
Auxiliary Correlation fitting basis         ... NOT available
Auxiliary 'external' fitting basis          ... NOT available
Integral threshold                          ...     2.500000e-11
Primitive cut-off                           ...     2.500000e-12
Primitive pair pre-selection threshold      ...     2.500000e-12

Calculating pre-screening integrals         ... done (  0.0 sec) Dimension = 22
Organizing shell pair data                  ... done (  0.0 sec)
Shell pair information
Total number of shell pairs                 ...       253
Shell pairs after pre-screening             ...       252
Total number of primitive shell pairs       ...       864
Primitive shell pairs kept                  ...       796
          la=0 lb=0:     54 shell pairs
          la=1 lb=0:     60 shell pairs
          la=1 lb=1:     21 shell pairs
          la=2 lb=0:     40 shell pairs
          la=2 lb=1:     24 shell pairs
          la=2 lb=2:     10 shell pairs
          la=3 lb=0:     20 shell pairs
          la=3 lb=1:     12 shell pairs
          la=3 lb=2:      8 shell pairs
          la=3 lb=3:      3 shell pairs

Calculating one electron integrals          ... done (  0.0 sec)
Calculating RI/J V-Matrix + Cholesky decomp.... done (  0.0 sec)
Calculating Nuclear repulsion               ... done (  0.0 sec) ENN=     22.610026100510 Eh

SHARK setup successfully completed in   0.1 seconds

Maximum memory used throughout the entire GTOINT-calculation: 13.7 MB


           ************************************************************
           *        Program running with 6 parallel MPI-processes     *
           *              working on a common directory               *
           ************************************************************
-------------------------------------------------------------------------------
                                 ORCA SCF
-------------------------------------------------------------------------------

------------
SCF SETTINGS
------------
Hamiltonian:
 Density Functional     Method          .... DFT(GTOs)
 Exchange Functional    Exchange        .... PBE
   PBE kappa parameter   XKappa         ....  0.804000
   PBE mue parameter    XMuePBE         ....  0.219520
 Correlation Functional Correlation     .... PBE
   PBE beta parameter  CBetaPBE         ....  0.066725
 LDA part of GGA corr.  LDAOpt          .... PW91-LDA
 Gradients option       PostSCFGGA      .... off
 Hybrid DFT is turned on
   Fraction HF Exchange ScalHFX         ....  0.250000
   Scaling of DF-GGA-X  ScalDFX         ....  0.750000
   Scaling of DF-GGA-C  ScalDFC         ....  1.000000
   Scaling of DF-LDA-C  ScalLDAC        ....  1.000000
   Perturbative correction              ....  0.000000
   Density functional embedding theory  .... OFF
   NL short-range parameter             ....  6.900000
 RI-approximation to the Coulomb term is turned on
   Number of AuxJ basis functions       .... 98
   RIJ-COSX (HFX calculated with COS-X)).... on


General Settings:
 Integral files         IntName         .... carbon_monoxide_OPT
 Hartree-Fock type      HFTyp           .... RHF
 Total Charge           Charge          ....    0
 Multiplicity           Mult            ....    1
 Number of Electrons    NEL             ....   14
 Basis Dimension        Dim             ....   62
 Nuclear Repulsion      ENuc            ....     22.6100261005 Eh

Convergence Acceleration:
 DIIS                   CNVDIIS         .... on
   Start iteration      DIISMaxIt       ....    12
   Startup error        DIISStart       ....  0.200000
   # of expansion vecs  DIISMaxEq       ....     5
   Bias factor          DIISBfac        ....   1.050
   Max. coefficient     DIISMaxC        ....  10.000
 Trust-Rad. Augm. Hess. CNVTRAH         .... auto
   Auto Start mean grad. ratio tolernc. ....  1.125000
   Auto Start start iteration           ....     1
   Auto Start num. interpolation iter.  ....    10
   Max. Number of Micro iterations      ....    16
   Max. Number of Macro iterations      .... Maxiter - #DIIS iter
   Number of Davidson start vectors     ....     2
   Converg. threshold I  (grad. norm)   ....   1.000e-05
   Converg. threshold II (energy diff.) ....   1.000e-08
   Grad. Scal. Fac. for Micro threshold ....   0.100
   Minimum threshold for Micro iter.    ....   0.010
   NR start threshold (gradient norm)   ....   0.001
   Initial trust radius                 ....   0.400
   Minimum AH scaling param. (alpha)    ....   1.000
   Maximum AH scaling param. (alpha)    .... 1000.000
   Orbital update algorithm             .... Taylor
   White noise on init. David. guess    .... on
   Maximum white noise                  ....   0.010
   Quad. conv. algorithm                .... NR
 SOSCF                  CNVSOSCF        .... on
   Start iteration      SOSCFMaxIt      ....   150
   Startup grad/error   SOSCFStart      ....  0.003300
 Level Shifting         CNVShift        .... on
   Level shift para.    LevelShift      ....    0.2500
   Turn off err/grad.   ShiftErr        ....    0.0010
 Zerner damping         CNVZerner       .... off
 Static damping         CNVDamp         .... on
   Fraction old density DampFac         ....    0.7000
   Max. Damping (<1)    DampMax         ....    0.9800
   Min. Damping (>=0)   DampMin         ....    0.0000
   Turn off err/grad.   DampErr         ....    0.1000
 Fernandez-Rico         CNVRico         .... off

SCF Procedure:
 Maximum # iterations   MaxIter         ....   125
 SCF integral mode      SCFMode         .... Direct
   Integral package                     .... SHARK and LIBINT hybrid scheme
 Reset frequency        DirectResetFreq ....    20
 Integral Threshold     Thresh          ....  2.500e-11 Eh
 Primitive CutOff       TCut            ....  2.500e-12 Eh

Convergence Tolerance:
 Convergence Check Mode ConvCheckMode   .... Total+1el-Energy
 Convergence forced     ConvForced      .... 0
 Energy Change          TolE            ....  1.000e-08 Eh
 1-El. energy change                    ....  1.000e-05 Eh
 Orbital Gradient       TolG            ....  1.000e-05
 Orbital Rotation angle TolX            ....  1.000e-05
 DIIS Error             TolErr          ....  5.000e-07


Diagonalization of the overlap matrix:
Smallest eigenvalue                        ... 1.177e-03
Time for diagonalization                   ...    0.001 sec
Threshold for overlap eigenvalues          ... 1.000e-08
Number of eigenvalues below threshold      ... 0
Time for construction of square roots      ...    0.001 sec
Total time needed                          ...    0.002 sec

---------------------
INITIAL GUESS: MOREAD
---------------------
Guess MOs are being read from file: carbon_monoxide_OPT.gbw
Input Geometry matches current geometry (good)
Input basis set matches current basis set (good)
MOs were renormalized
MOs were reorthogonalized (Cholesky)
                      ------------------
                      INITIAL GUESS DONE (   0.0 sec)
                      ------------------
-------------------
DFT GRID GENERATION
-------------------

General Integration Accuracy     IntAcc      ... 4.388
Radial Grid Type                 RadialGrid  ... OptM3 with GC (2021)
Angular Grid (max. ang.)         AngularGrid ... 4 (Lebedev-302)
Angular grid pruning method      GridPruning ... 4 (adaptive)
Weight generation scheme         WeightScheme... Becke
Basis function cutoff            BFCut       ... 1.0000e-11
Integration weight cutoff        WCut        ... 1.0000e-14
Angular grids for H and He will be reduced by one unit
Partially contracted basis set               ... off
Rotationally invariant grid construction     ... off

Total number of grid points                  ...    12255
Total number of batches                      ...      193
Average number of points per batch           ...       63
Average number of grid points per atom       ...     6128
Time for grid setup =    0.070 sec

--------------------
COSX GRID GENERATION
--------------------

GRIDX 1
-------
General Integration Accuracy     IntAcc      ... 3.816
Radial Grid Type                 RadialGrid  ... OptM3 with GC (2021)
Angular Grid (max. ang.)         AngularGrid ... 1 (Lebedev-50)
Angular grid pruning method      GridPruning ... 4 (adaptive)
Weight generation scheme         WeightScheme... Becke
Basis function cutoff            BFCut       ... 1.0000e-11
Integration weight cutoff        WCut        ... 1.0000e-14
Angular grids for H and He will be reduced by one unit
Partially contracted basis set               ... on
Rotationally invariant grid construction     ... off

Total number of grid points                  ...     1532
Total number of batches                      ...       25
Average number of points per batch           ...       61
Average number of grid points per atom       ...      766
UseSFitting                                  ... on

GRIDX 2
-------
General Integration Accuracy     IntAcc      ... 4.020
Radial Grid Type                 RadialGrid  ... OptM3 with GC (2021)
Angular Grid (max. ang.)         AngularGrid ... 2 (Lebedev-110)
Angular grid pruning method      GridPruning ... 4 (adaptive)
Weight generation scheme         WeightScheme... Becke
Basis function cutoff            BFCut       ... 1.0000e-11
Integration weight cutoff        WCut        ... 1.0000e-14
Angular grids for H and He will be reduced by one unit
Partially contracted basis set               ... on
Rotationally invariant grid construction     ... off

Total number of grid points                  ...     3760
Total number of batches                      ...       60
Average number of points per batch           ...       62
Average number of grid points per atom       ...     1880
UseSFitting                                  ... on

GRIDX 3
-------
General Integration Accuracy     IntAcc      ... 4.338
Radial Grid Type                 RadialGrid  ... OptM3 with GC (2021)
Angular Grid (max. ang.)         AngularGrid ... 3 (Lebedev-194)
Angular grid pruning method      GridPruning ... 4 (adaptive)
Weight generation scheme         WeightScheme... Becke
Basis function cutoff            BFCut       ... 1.0000e-11
Integration weight cutoff        WCut        ... 1.0000e-14
Angular grids for H and He will be reduced by one unit
Partially contracted basis set               ... on
Rotationally invariant grid construction     ... off

Total number of grid points                  ...     8420
Total number of batches                      ...      132
Average number of points per batch           ...       63
Average number of grid points per atom       ...     4210
UseSFitting                                  ... on

Time for X-Grid setup             =    0.107 sec

--------------
SCF ITERATIONS
--------------
ITER       Energy         Delta-E        Max-DP      RMS-DP      [F,P]     Damp
               ***  Starting incremental Fock matrix formation  ***
                      *** Initiating the SOSCF procedure ***
                      *** Re-Reading the Fockian *** 
                      *** Removing any level shift *** 
ITER      Energy       Delta-E        Grad      Rot      Max-DP    RMS-DP
  0   -113.23101977 -113.2310197682  0.000001  0.000001  0.000001  0.000000
               *** Restarting incremental Fock matrix formation ***
                 **** Energy Check signals convergence ****
              ***Rediagonalizing the Fockian in SOSCF/NRSCF***

               *****************************************************
               *                     SUCCESS                       *
               *           SCF CONVERGED AFTER   1 CYCLES          *
               *****************************************************

Old exchange energy                            =     -3.329432997 Eh
New exchange energy                            =     -3.329432965 Eh
Exchange energy change after final integration =      0.000000032 Eh
Total energy after final integration           =   -113.231019736 Eh
Final COS-X integration done in                =     0.076 sec

----------------
TOTAL SCF ENERGY
----------------

Total Energy       :         -113.23101974 Eh           -3081.17269 eV

Components:
Nuclear Repulsion  :           22.61002610 Eh             615.25009 eV
Electronic Energy  :         -135.84104584 Eh           -3696.42278 eV
One Electron Energy:         -198.54163006 Eh           -5402.59242 eV
Two Electron Energy:           62.70058422 Eh            1706.16964 eV
Max COSX asymmetry :            0.00000113 Eh               0.00003 eV

Virial components:
Potential Energy   :         -226.07772343 Eh           -6151.88761 eV
Kinetic Energy     :          112.84670369 Eh            3070.71492 eV
Virial Ratio       :            2.00340565


DFT components:
N(Alpha)           :        7.000002029684 electrons
N(Beta)            :        7.000002029684 electrons
N(Total)           :       14.000004059369 electrons
E(X)               :       -9.993011946497 Eh       
E(C)               :       -0.450068985926 Eh       
E(XC)              :      -10.443080932422 Eh       
DFET-embed. en.    :        0.000000000000 Eh       

---------------
SCF CONVERGENCE
---------------

  Last Energy change         ...   -1.2733e-11  Tolerance :   1.0000e-08
  Last MAX-Density change    ...    7.7716e-16  Tolerance :   1.0000e-07
  Last RMS-Density change    ...    4.2098e-17  Tolerance :   5.0000e-09
  Last Orbital Gradient      ...    3.2854e-07  Tolerance :   1.0000e-05
  Last Orbital Rotation      ...    2.7001e-07  Tolerance :   1.0000e-05

             **** THE GBW FILE WAS UPDATED (carbon_monoxide_OPT.gbw) ****
             **** DENSITY carbon_monoxide_OPT.scfp WAS UPDATED ****
             **** ENERGY FILE WAS UPDATED (carbon_monoxide_OPT.en.tmp) ****
             **** THE GBW FILE WAS UPDATED (carbon_monoxide_OPT.gbw) ****
             **** DENSITY carbon_monoxide_OPT.scfp WAS UPDATED ****
----------------
ORBITAL ENERGIES
----------------

  NO   OCC          E(Eh)            E(eV) 
   0   2.0000     -19.313392      -525.5441 
   1   2.0000     -10.339784      -281.3598 
   2   2.0000      -1.199972       -32.6529 
   3   2.0000      -0.598734       -16.2924 
   4   2.0000      -0.497003       -13.5241 
   5   2.0000      -0.497003       -13.5241 
   6   2.0000      -0.393640       -10.7115 
   7   0.0000      -0.022913        -0.6235 
   8   0.0000      -0.022913        -0.6235 
   9   0.0000       0.125194         3.4067 
  10   0.0000       0.194384         5.2895 
  11   0.0000       0.226914         6.1747 
  12   0.0000       0.226914         6.1747 
  13   0.0000       0.374712        10.1964 
  14   0.0000       0.490193        13.3388 
  15   0.0000       0.490193        13.3388 
  16   0.0000       0.591592        16.0980 
  17   0.0000       0.642620        17.4866 
  18   0.0000       0.642625        17.4867 
  19   0.0000       0.709051        19.2942 
  20   0.0000       0.861330        23.4380 
  21   0.0000       0.861330        23.4380 
  22   0.0000       1.193997        32.4903 
  23   0.0000       1.291636        35.1472 
  24   0.0000       1.384863        37.6840 
  25   0.0000       1.384863        37.6840 
  26   0.0000       1.403625        38.1946 
  27   0.0000       1.507962        41.0337 
  28   0.0000       1.507979        41.0342 
  29   0.0000       1.895936        51.5910 
  30   0.0000       1.895936        51.5910 
  31   0.0000       2.190223        59.5990 
  32   0.0000       2.600080        70.7518 
  33   0.0000       2.600080        70.7518 
  34   0.0000       2.637085        71.7587 
  35   0.0000       2.637085        71.7587 
  36   0.0000       2.817947        76.6802 
  37   0.0000       2.817951        76.6804 
  38   0.0000       2.857988        77.7698 
  39   0.0000       2.943476        80.0960 
  40   0.0000       2.943488        80.0964 
  41   0.0000       2.998258        81.5867 
  42   0.0000       2.998258        81.5867 
  43   0.0000       3.092250        84.1444 
  44   0.0000       3.643145        99.1350 
  45   0.0000       3.643145        99.1350 
  46   0.0000       3.833187       104.3063 
  47   0.0000       4.209147       114.5367 
  48   0.0000       5.083402       138.3264 
  49   0.0000       5.083402       138.3264 
  50   0.0000       5.491836       149.4405 
  51   0.0000       5.491880       149.4417 
  52   0.0000       6.201039       168.7389 
  53   0.0000       6.201039       168.7389 
  54   0.0000       6.244126       169.9113 
  55   0.0000       6.244203       169.9134 
  56   0.0000       6.502413       176.9397 
  57   0.0000       6.678523       181.7318 
  58   0.0000       6.678523       181.7318 
  59   0.0000       7.060102       192.1151 
  60   0.0000      21.900667       595.9475 
  61   0.0000      43.566441      1185.5031 

                    ********************************
                    * MULLIKEN POPULATION ANALYSIS *
                    ********************************

-----------------------
MULLIKEN ATOMIC CHARGES
-----------------------
   0 C :   -0.002101
   1 O :    0.002101
Sum of atomic charges:   -0.0000000

--------------------------------
MULLIKEN REDUCED ORBITAL CHARGES
--------------------------------
  0 C s       :     3.865768  s :     3.865768
      pz      :     0.518345  p :     2.011504
      px      :     0.974814
      py      :     0.518345
      dz2     :     0.007823  d :     0.111697
      dxz     :     0.040203
      dyz     :     0.000000
      dx2y2   :     0.023468
      dxy     :     0.040203
      f0      :     0.001845  f :     0.013132
      f+1     :     0.001234
      f-1     :     0.000308
      f+2     :     0.003075
      f-2     :     0.000000
      f+3     :     0.002057
      f-3     :     0.004613
  1 O s       :     3.762241  s :     3.762241
      pz      :     1.423573  p :     4.201836
      px      :     1.354690
      py      :     1.423573
      dz2     :     0.001889  d :     0.031962
      dxz     :     0.012202
      dyz     :     0.000000
      dx2y2   :     0.005668
      dxy     :     0.012202
      f0      :     0.000283  f :     0.001860
      f+1     :     0.000131
      f-1     :     0.000047
      f+2     :     0.000472
      f-2     :    -0.000000
      f+3     :     0.000218
      f-3     :     0.000708


                     *******************************
                     * LOEWDIN POPULATION ANALYSIS *
                     *******************************

----------------------
LOEWDIN ATOMIC CHARGES
----------------------
   0 C :   -0.251664
   1 O :    0.251664

-------------------------------
LOEWDIN REDUCED ORBITAL CHARGES
-------------------------------
  0 C s       :     3.487399  s :     3.487399
      pz      :     0.554189  p :     2.348053
      px      :     1.239675
      py      :     0.554189
      dz2     :     0.037357  d :     0.330015
      dxz     :     0.090293
      dyz     :     0.000000
      dx2y2   :     0.112072
      dxy     :     0.090293
      f0      :     0.011320  f :     0.086197
      f+1     :     0.009685
      f-1     :     0.001887
      f+2     :     0.018866
      f-2     :     0.000000
      f+3     :     0.016141
      f-3     :     0.028299
  1 O s       :     3.427609  s :     3.427609
      pz      :     1.313033  p :     4.255539
      px      :     1.629473
      py      :     1.313033
      dz2     :     0.009205  d :     0.059097
      dxz     :     0.011139
      dyz     :     0.000000
      dx2y2   :     0.027614
      dxy     :     0.011139
      f0      :     0.000435  f :     0.006090
      f+1     :     0.001414
      f-1     :     0.000073
      f+2     :     0.000725
      f-2     :     0.000000
      f+3     :     0.002356
      f-3     :     0.001088


                      *****************************
                      * MAYER POPULATION ANALYSIS *
                      *****************************

  NA   - Mulliken gross atomic population
  ZA   - Total nuclear charge
  QA   - Mulliken gross atomic charge
  VA   - Mayer's total valence
  BVA  - Mayer's bonded valence
  FA   - Mayer's free valence

  ATOM       NA         ZA         QA         VA         BVA        FA
  0 C      6.0021     6.0000    -0.0021     2.4397     2.4397     0.0000
  1 O      7.9979     8.0000     0.0021     2.4397     2.4397    -0.0000

  Mayer bond orders larger than 0.100000
B(  0-C ,  1-O ) :   2.4397 

-------
TIMINGS
-------

Total SCF time: 0 days 0 hours 0 min 0 sec 

Total time                  ....       0.771 sec
Sum of individual times     ....       0.665 sec  ( 86.1%)

Fock matrix formation       ....       0.453 sec  ( 58.8%)
  Split-RI-J                ....       0.121 sec  ( 26.6% of F)
  Chain of spheres X        ....       0.261 sec  ( 57.5% of F)
  XC integration            ....       0.070 sec  ( 15.4% of F)
    Basis function eval.    ....       0.005 sec  (  7.3% of XC)
    Density eval.           ....       0.004 sec  (  5.2% of XC)
    XC-Functional eval.     ....       0.002 sec  (  3.4% of XC)
    XC-Potential eval.      ....       0.004 sec  (  5.9% of XC)
Diagonalization             ....       0.003 sec  (  0.5%)
Density matrix formation    ....       0.001 sec  (  0.1%)
Population analysis         ....       0.007 sec  (  0.9%)
Initial guess               ....       0.013 sec  (  1.6%)
Orbital Transformation      ....       0.000 sec  (  0.0%)
Orbital Orthonormalization  ....       0.001 sec  (  0.1%)
DIIS solution               ....       0.006 sec  (  0.8%)
SOSCF solution              ....       0.005 sec  (  0.7%)
Grid generation             ....       0.177 sec  ( 22.9%)

Maximum memory used throughout the entire SCF-calculation: 58.0 MB

-------------------------   --------------------
FINAL SINGLE POINT ENERGY      -113.231019736216
-------------------------   --------------------

                                *** OPTIMIZATION RUN DONE ***

                            ***************************************
                            *     ORCA property calculations      *
                            ***************************************

                                    ---------------------
                                    Active property flags
                                    ---------------------
   (+) Dipole Moment


------------------------------------------------------------------------------
                       ORCA ELECTRIC PROPERTIES CALCULATION
------------------------------------------------------------------------------

Dipole Moment Calculation                       ... on
Quadrupole Moment Calculation                   ... off
Polarizability Calculation                      ... off
GBWName                                         ... carbon_monoxide_OPT.gbw
Electron density                                ... carbon_monoxide_OPT.scfp
The origin for moment calculation is the CENTER OF MASS  = (-51.463583, 22.991674  0.000000)

-------------
DIPOLE MOMENT
-------------
                                X             Y             Z
Electronic contribution:      0.04313      -0.00000      -0.00000
Nuclear contribution   :      0.00712       0.00000       0.00000
                        -----------------------------------------
Total Dipole Moment    :      0.05025      -0.00000      -0.00000
                        -----------------------------------------
Magnitude (a.u.)       :      0.05025
Magnitude (Debye)      :      0.12773



--------------------
Rotational spectrum 
--------------------
 
Rotational constants in cm-1:     0.000000     1.946953     1.946953 
Rotational constants in MHz :     0.000000 58368.172843 58368.172843 

 Dipole components along the rotational axes: 
x,y,z [a.u.] :     0.050253    -0.000000    -0.000000 
x,y,z [Debye]:     0.127732    -0.000000    -0.000000 

 


           ************************************************************
           *        Program running with 6 parallel MPI-processes     *
           *              working on a common directory               *
           ************************************************************

-------------------------------------------------------------------------------
                               ORCA SCF HESSIAN
-------------------------------------------------------------------------------

Hessian of the Kohn-Sham DFT energy:
Kohn-Sham wavefunction type                      ... RKS
Hartree-Fock exchange scaling                    ...    0.250
Number of operators                              ...    1
Number of atoms                                  ...    2
Basis set dimensions                             ...   62
Integral neglect threshold                       ... 2.5e-11
Integral primitive cutoff                        ... 2.5e-12

Setting up DFT Hessian calculations              ... 

HESS GRID
---------

General Integration Accuracy     IntAcc      ... 4.629
Radial Grid Type                 RadialGrid  ... OptM3 with GC (2021)
Angular Grid (max. ang.)         AngularGrid ... 5 (Lebedev-434)
Angular grid pruning method      GridPruning ... 4 (adaptive)
Weight generation scheme         WeightScheme... Becke
Basis function cutoff            BFCut       ... 1.0000e-11
Integration weight cutoff        WCut        ... 1.0000e-14
Angular grids for H and He will be reduced by one unit
Partially contracted basis set               ... off
Rotationally invariant grid construction     ... off

Total number of grid points                  ...    19209
Total number of batches                      ...      302
Average number of points per batch           ...       63
Average number of grid points per atom       ...     9604

Building densities                               ... done   (      0.0 sec)
Calculating rho(r) on the grid                   ... done   (      0.0 sec)
Building xc-kernel on the grid                   ... done   (      0.0 sec)
                                                     done   (      0.2 sec)

Nuclear repulsion Hessian  (SHARK)               ... done   (      0.0 sec)

----------------------------------------------
Forming right-hand sides of CP-SCF equations     ...
----------------------------------------------
One electron integral derivatives  (SHARK)       ... done   (      0.0 sec)
Transforming the overlap derivative matrices     ... done   (      0.0 sec)
Making the Q(x) pseudodensities                  ... done   (      0.0 sec)
Adding the E*S(x)*S(y) terms to the Hessian      ... done   (      0.0 sec)
Calculating energy weighted overlap derivatives  ... done   (      0.0 sec)
Two electron integral derivatives (SHARK-RI)     ... done   (      0.2 sec)
Exchange-correlation integral derivatives        ... done   (      0.2 sec)
tr(F(y)Q(x)) contribution to the Hessian         ... done   (      0.0 sec)
Response fock operator R(S(x)) (SHARK-RIJCOSX)   ... done   (      0.2 sec)
XC Response fock operator R(S(x))                ... done   (      0.0 sec)
tr(F(y)S(x)) contribution to the Hessian         ... done   (      0.0 sec)
Transforming and finalizing RHSs                 ... done   (      0.0 sec)

----------------------------------------------
Solving the CP-SCF equations (RIJCOSX)           ...
----------------------------------------------
     CP-SCF ITERATION   0:   1.9930e-01 (   0.1 sec   0/  6 done)
     CP-SCF ITERATION   1:   5.9376e-02 (   0.2 sec   0/  6 done)
     CP-SCF ITERATION   2:   2.8758e-03 (   0.2 sec   0/  6 done)
     CP-SCF ITERATION   3:   3.6555e-04 (   0.2 sec   4/  6 done)
     CP-SCF ITERATION   4:   3.8194e-05 (   0.1 sec   6/  6 done)
                    *** THE CP-SCF HAS CONVERGED ***

                                                 ... done   (      0.9 sec)
Forming perturbed density Hessian contributions  ... done   (      0.0 sec)
2nd integral derivative contribs (SHARK-RI)      ... done   (      0.8 sec)
Exchange-correlation Hessian                     ... done   (      0.2 sec)
Dipole derivatives                               ... done   (      0.1 sec)

Total SCF Hessian time: 0 days 0 hours 0 min 3 sec 

Writing the Hessian file to the disk             ... done


Maximum memory used throughout the entire SCFHESS-calculation: 66.8 MB
Warning: T+R mode no 3 is zero 

-----------------------
VIBRATIONAL FREQUENCIES
-----------------------

Scaling factor for frequencies =  1.000000000  (already applied!)

   0:         0.00 cm**-1
   1:         0.00 cm**-1
   2:         0.00 cm**-1
   3:         0.00 cm**-1
   4:         0.00 cm**-1
   5:      2238.88 cm**-1


------------
NORMAL MODES
------------

These modes are the Cartesian displacements weighted by the diagonal matrix
M(i,i)=1/sqrt(m[i]) where m[i] is the mass of the displaced atom
Thus, these vectors are normalized but *not* orthogonal

                  0          1          2          3          4          5    
      0       0.000000   0.000000   0.000000   0.000000   0.000000   0.799718
      1       0.000000   0.000000   0.000000   0.000000   0.000000   0.000000
      2       0.000000   0.000000   0.000000   0.000000   0.000000   0.000000
      3       0.000000   0.000000   0.000000   0.000000   0.000000  -0.600376
      4       0.000000   0.000000   0.000000   0.000000   0.000000   0.000000
      5       0.000000   0.000000   0.000000   0.000000   0.000000   0.000000


-----------
IR SPECTRUM
-----------

 Mode   freq       eps      Int      T**2         TX        TY        TZ
       cm**-1   L/(mol*cm) km/mol    a.u.
----------------------------------------------------------------------------
  5:   2238.88   0.015674   79.21  0.002185  ( 0.046741 -0.000000  0.000000)

* The epsilon (eps) is given for a Dirac delta lineshape.
** The dipole moment derivative (T) already includes vibrational overlap.

The first frequency considered to be a vibration is 5
The total number of vibrations considered is 1


--------------------------
THERMOCHEMISTRY AT 298.15K
--------------------------

Temperature         ... 298.15 K
Pressure            ... 1.00 atm
Total Mass          ... 28.01 AMU
The molecule is recognized as being linear

Throughout the following assumptions are being made:
  (1) The electronic state is orbitally nondegenerate
  (2) There are no thermally accessible electronically excited states
  (3) Hindered rotations indicated by low frequency modes are not
      treated as such but are treated as vibrations and this may
      cause some error
  (4) All equations used are the standard statistical mechanics
      equations for an ideal gas
  (5) All vibrations are strictly harmonic

freq.    2238.88  E(vib)   ...       0.00 

------------
INNER ENERGY
------------

The inner energy is: U= E(el) + E(ZPE) + E(vib) + E(rot) + E(trans)
    E(el)   - is the total energy from the electronic structure calculation
              = E(kin-el) + E(nuc-el) + E(el-el) + E(nuc-nuc)
    E(ZPE)  - the the zero temperature vibrational energy from the frequency calculation
    E(vib)  - the the finite temperature correction to E(ZPE) due to population
              of excited vibrational states
    E(rot)  - is the rotational thermal energy
    E(trans)- is the translational thermal energy

Summary of contributions to the inner energy U:
Electronic energy                ...   -113.23101974 Eh
Zero point energy                ...      0.00510055 Eh       3.20 kcal/mol
Thermal vibrational correction   ...      0.00000021 Eh       0.00 kcal/mol
Thermal rotational correction    ...      0.00094418 Eh       0.59 kcal/mol
Thermal translational correction ...      0.00141627 Eh       0.89 kcal/mol
-----------------------------------------------------------------------
Total thermal energy                   -113.22355853 Eh


Summary of corrections to the electronic energy:
(perhaps to be used in another calculation)
Total thermal correction                  0.00236066 Eh       1.48 kcal/mol
Non-thermal (ZPE) correction              0.00510055 Eh       3.20 kcal/mol
-----------------------------------------------------------------------
Total correction                          0.00746121 Eh       4.68 kcal/mol


--------
ENTHALPY
--------

The enthalpy is H = U + kB*T
                kB is Boltzmann's constant
Total free energy                 ...   -113.22355853 Eh 
Thermal Enthalpy correction       ...      0.00094421 Eh       0.59 kcal/mol
-----------------------------------------------------------------------
Total Enthalpy                    ...   -113.22261432 Eh


Note: Rotational entropy computed according to Herzberg 
Infrared and Raman Spectra, Chapter V,1, Van Nostrand Reinhold, 1945 
Point Group:  Cinfv, Symmetry Number:   1  
Rotational constants in cm-1:     0.000000     1.946953     1.946953 

Vibrational entropy computed according to the QRRHO of S. Grimme
Chem.Eur.J. 2012 18 9955


-------
ENTROPY
-------

The entropy contributions are T*S = T*(S(el)+S(vib)+S(rot)+S(trans))
     S(el)   - electronic entropy
     S(vib)  - vibrational entropy
     S(rot)  - rotational entropy
     S(trans)- translational entropy
The entropies will be listed as multiplied by the temperature to get
units of energy

Electronic entropy                ...      0.00000000 Eh      0.00 kcal/mol
Vibrational entropy               ...      0.00000023 Eh      0.00 kcal/mol
Rotational entropy                ...      0.00535119 Eh      3.36 kcal/mol
Translational entropy             ...      0.01706888 Eh     10.71 kcal/mol
-----------------------------------------------------------------------
Final entropy term                ...      0.02242030 Eh     14.07 kcal/mol


-------------------
GIBBS FREE ENERGY
-------------------

The Gibbs free energy is G = H - T*S

Total enthalpy                    ...   -113.22261432 Eh 
Total entropy correction          ...     -0.02242030 Eh    -14.07 kcal/mol
-----------------------------------------------------------------------
Final Gibbs free energy         ...   -113.24503462 Eh

For completeness - the Gibbs free energy minus the electronic energy
G-E(el)                           ...     -0.01401488 Eh     -8.79 kcal/mol


Timings for individual modules:

Sum of individual times         ...        6.511 sec (=   0.109 min)
GTO integral calculation        ...        0.403 sec (=   0.007 min)   6.2 %
SCF iterations                  ...        2.096 sec (=   0.035 min)  32.2 %
SCF Gradient evaluation         ...        0.489 sec (=   0.008 min)   7.5 %
Geometry relaxation             ...        0.014 sec (=   0.000 min)   0.2 %
Analytical frequency calculation...        3.510 sec (=   0.058 min)  53.9 %
                             ****ORCA TERMINATED NORMALLY****
TOTAL RUN TIME: 0 days 0 hours 0 minutes 6 seconds 683 msec
