
                                 *****************
                                 * O   R   C   A *
                                 *****************

           --- An Ab Initio, DFT and Semiempirical electronic structure package ---

                  #######################################################
                  #                        -***-                        #
                  #          Department of theory and spectroscopy      #
                  #               Directorship: Frank Neese             #
                  #        Max Planck Institute fuer Kohlenforschung    #
                  #                Kaiser Wilhelm Platz 1               #
                  #                 D-45470 Muelheim/Ruhr               #
                  #                      Germany                        #
                  #                                                     #
                  #                  All rights reserved                #
                  #                        -***-                        #
                  #######################################################


                         Program Version 4.2.1 -  RELEASE  -


 With contributions from (in alphabetic order):
   Daniel Aravena         : Magnetic Suceptibility
   Michael Atanasov       : Ab Initio Ligand Field Theory (pilot matlab implementation)
   Alexander A. Auer      : GIAO ZORA, VPT2
   Ute Becker             : Parallelization
   Giovanni Bistoni       : ED, misc. LED, open-shell LED, HFLD
   Martin Brehm           : Molecular dynamics
   Dmytro Bykov           : SCF Hessian
   Vijay G. Chilkuri      : MRCI spin determinant printing, contributions to CSF-ICE
   Dipayan Datta          : RHF DLPNO-CCSD density
   Achintya Kumar Dutta   : EOM-CC, STEOM-CC
   Dmitry Ganyushin       : Spin-Orbit,Spin-Spin,Magnetic field MRCI
   Miquel Garcia          : C-PCM Hessian, Gaussian charge scheme
   Yang Guo               : DLPNO-NEVPT2, CIM, IAO-localization
   Andreas Hansen         : Spin unrestricted coupled pair/coupled cluster methods
   Benjamin Helmich-Paris : CASSCF linear response (MC-RPA)
   Lee Huntington         : MR-EOM, pCC
   Robert Izsak           : Overlap fitted RIJCOSX, COSX-SCS-MP3, EOM
   Christian Kollmar      : KDIIS, OOCD, Brueckner-CCSD(T), CCSD density
   Simone Kossmann        : Meta GGA functionals, TD-DFT gradient, OOMP2, MP2 Hessian
   Martin Krupicka        : AUTO-CI
   Lucas Lang             : DCDCAS
   Dagmar Lenk            : GEPOL surface, SMD
   Dimitrios Liakos       : Extrapolation schemes; Compound Job, initial MDCI parallelization
   Dimitrios Manganas     : Further ROCIS development; embedding schemes
   Dimitrios Pantazis     : SARC Basis sets
   Taras Petrenko         : DFT Hessian,TD-DFT gradient, ASA, ECA, R-Raman, ABS, FL, XAS/XES, NRVS
   Peter Pinski           : DLPNO-MP2, DLPNO-MP2 Gradient
   Christoph Reimann      : Effective Core Potentials
   Marius Retegan         : Local ZFS, SOC
   Christoph Riplinger    : Optimizer, TS searches, QM/MM, DLPNO-CCSD(T), (RO)-DLPNO pert. Triples
   Tobias Risthaus        : Range-separated hybrids, TD-DFT gradient, RPA, STAB
   Michael Roemelt        : Original ROCIS implementation
   Masaaki Saitow         : Open-shell DLPNO-CCSD energy and density
   Barbara Sandhoefer     : DKH picture change effects
   Avijit Sen             : IP-ROCIS
   Kantharuban Sivalingam : CASSCF convergence, NEVPT2, FIC-MRCI
   Bernardo de Souza      : ESD, SOC TD-DFT
   Georgi Stoychev        : AutoAux, RI-MP2 NMR
   Willem Van den Heuvel  : Paramagnetic NMR
   Boris Wezisla          : Elementary symmetry handling
   Frank Wennmohs         : Technical directorship


 We gratefully acknowledge several colleagues who have allowed us to
 interface, adapt or use parts of their codes:
   Stefan Grimme, W. Hujo, H. Kruse,             : VdW corrections, initial TS optimization,
                  C. Bannwarth                     DFT functionals, gCP, sTDA/sTD-DF
   Ed Valeev, F. Pavosevic, A. Kumar             : LibInt (2-el integral package), F12 methods
   Garnet Chan, S. Sharma, J. Yang, R. Olivares  : DMRG
   Ulf Ekstrom                                   : XCFun DFT Library
   Mihaly Kallay                                 : mrcc  (arbitrary order and MRCC methods)
   Andreas Klamt, Michael Diedenhofen            : otool_cosmo (COSMO solvation model)
   Jiri Pittner, Ondrej Demel                    : Mk-CCSD
   Frank Weinhold                                : gennbo (NPA and NBO analysis)
   Christopher J. Cramer and Donald G. Truhlar   : smd solvation model
   Lars Goerigk                                  : TD-DFT with DH, B97 family of functionals
   V. Asgeirsson, H. Jonsson                     : NEB implementation
   FAccTs GmbH                                   : IRC, NEB, NEB-TS, Multilevel, MM, QM/MM, CI optimization
   S Lehtola, MJT Oliveira, MAL Marques          : LibXC Library


 Your calculation uses the libint2 library for the computation of 2-el integrals
 For citations please refer to: http://libint.valeyev.net

 Your ORCA version has been built with support for libXC version: 4.2.3
 For citations please refer to: https://tddft.org/programs/libxc/

 This ORCA versions uses:
   CBLAS   interface :  Fast vector & matrix operations
   LAPACKE interface :  Fast linear algebra routines
   SCALAPACK package :  Parallel linear algebra routines




***************************************
The coordinates will be read from file: furan_MP2_aug-cc-pVTZ_OPT.xyz
***************************************


----- Orbital basis set information -----
Your calculation utilizes the basis: aug-cc-pVTZ 
    H, B-Ne : Obtained from the ccRepo (grant-hill.group.shef.ac.uk/ccrepo) Feb. 2017
              R. A. Kendall, T. H. Dunning, Jr., R. J. Harrison, J. Chem. Phys. 96, 6796 (1992)
         He : Obtained from the ccRepo (grant-hill.group.shef.ac.uk/ccrepo) Feb. 2017
              D. E. Woon, T. H. Dunning, Jr., J. Chem. Phys. 100, 2975 (1994)
  Li-Be, Na : Obtained from the ccRepo (grant-hill.group.shef.ac.uk/ccrepo) Feb. 2017
              B. P. Prascher, D. E. Woon, K. A. Peterson, T. H. Dunning, Jr., A. K. Wilson, Theor. Chem. Acc. 128, 69 (2011)
         Mg : Obtained from the Peterson Research Group Website (tyr0.chem.wsu.edu/~kipeters) Feb. 2017
              B. P. Prascher, D. E. Woon, K. A. Peterson, T. H. Dunning, Jr., A. K. Wilson, Theor. Chem. Acc. 128, 69 (2011)
      Al-Ar : Obtained from the ccRepo (grant-hill.group.shef.ac.uk/ccrepo) Feb. 2017
              D. E. Woon, T. H. Dunning, Jr., J. Chem. Phys. 98, 1358 (1993)
      Sc-Zn : Obtained from the ccRepo (grant-hill.group.shef.ac.uk/ccrepo) Feb. 2017
              N. B. Balabanov, K. A. Peterson, J. Chem. Phys. 123, 064107 (2005)
              N. B. Balabanov, K. A. Peterson, J. Chem. Phys. 125, 074110 (2006)
      Ga-Kr : Obtained from the ccRepo (grant-hill.group.shef.ac.uk/ccrepo) Feb. 2017
              A. K. Wilson, D. E. Woon, K. A. Peterson, T. H. Dunning, Jr., J. Chem. Phys. 110, 7667 (1999)
     Ag, Au : Obtained from the Peterson Research Group Website (tyr0.chem.wsu.edu/~kipeters) Feb. 2017
              K. A. Peterson, C. Puzzarini, Theor. Chem. Acc. 114, 283 (2005)

================================================================================
                                        WARNINGS
                       Please study these warnings very carefully!
================================================================================


WARNING: MDCI localization with Augmented Hessian Foster-Boys
  ===> : Switching off randomization!

WARNING: Post HF methods need fully converged wavefunctions
  ===> : Setting SCFConvForced true
         You can overwrite this default with %scf ConvForced false 


INFO   : the flag for use of LIBINT has been found!

================================================================================
                                       INPUT FILE
================================================================================
NAME = furan_CCSDT_aug-cc-pVTZ_SPE.inp
|  1> # furan CCSD(T)/aug-cc-pVTZ SPE
|  2> 
|  3> ! CCSD(T) aug-cc-pVTZ TightSCF PAL8
|  4> %maxcore 2000
|  5> 
|  6> * xyzfile 0 1 furan_MP2_aug-cc-pVTZ_OPT.xyz
|  7> 
|  8> 
|  9>                          ****END OF INPUT****
================================================================================

                       ****************************
                       * Single Point Calculation *
                       ****************************

---------------------------------
CARTESIAN COORDINATES (ANGSTROEM)
---------------------------------
  C     -0.403573    1.310882   -0.000000
  O      0.011033    0.015672   -0.000000
  C      1.370812    0.036554    0.000000
  C      0.669567    2.154621    0.000000
  C      1.827529    1.322987   -0.000000
  H     -1.467964    1.461561   -0.000000
  H      1.853660   -0.923910    0.000000
  H      0.631230    3.229993    0.000001
  H      2.858805    1.630180   -0.000001

----------------------------
CARTESIAN COORDINATES (A.U.)
----------------------------
  NO LB      ZA    FRAG     MASS         X           Y           Z
   0 C     6.0000    0    12.011   -0.762642    2.477208   -0.000000
   1 O     8.0000    0    15.999    0.020850    0.029616   -0.000000
   2 C     6.0000    0    12.011    2.590460    0.069077    0.000000
   3 C     6.0000    0    12.011    1.265298    4.071643    0.000001
   4 C     6.0000    0    12.011    3.453530    2.500084   -0.000001
   5 H     1.0000    0     1.008   -2.774050    2.761950   -0.000001
   6 H     1.0000    0     1.008    3.502910   -1.745937    0.000001
   7 H     1.0000    0     1.008    1.192852    6.103802    0.000001
   8 H     1.0000    0     1.008    5.402358    3.080593   -0.000001

--------------------------------
INTERNAL COORDINATES (ANGSTROEM)
--------------------------------
 C      0   0   0     0.000000000000     0.00000000     0.00000000
 O      1   0   0     1.359950800762     0.00000000     0.00000000
 C      2   1   0     1.359939420904   106.87044006     0.00000000
 C      1   2   3     1.365109672891   110.42537997     0.00000000
 C      3   2   1     1.365101298572   110.42598510     0.00000000
 H      1   2   3     1.075003371577   115.80770071   180.00001107
 H      3   2   1     1.075004021353   115.80995423   179.99999402
 H      4   1   2     1.076055512162   126.13388501   180.00001025
 H      5   3   2     1.076055607971   126.13371698   180.00002338

---------------------------
INTERNAL COORDINATES (A.U.)
---------------------------
 C      0   0   0     0.000000000000     0.00000000     0.00000000
 O      1   0   0     2.569934569047     0.00000000     0.00000000
 C      2   1   0     2.569913064231   106.87044006     0.00000000
 C      1   2   3     2.579683424530   110.42537997     0.00000000
 C      3   2   1     2.579667599362   110.42598510     0.00000000
 H      1   2   3     2.031461965323   115.80770071   180.00001107
 H      3   2   1     2.031463193220   115.80995423   179.99999402
 H      4   1   2     2.033450222883   126.13388501   180.00001025
 H      5   3   2     2.033450403936   126.13371698   180.00002338

---------------------
BASIS SET INFORMATION
---------------------
There are 3 groups of distinct atoms

 Group   1 Type C   : 19s6p3d2f contracted to 5s4p3d2f pattern {88111/3111/111/11}
 Group   2 Type O   : 19s6p3d2f contracted to 5s4p3d2f pattern {88111/3111/111/11}
 Group   3 Type H   : 6s3p2d contracted to 4s3p2d pattern {3111/111/11}

Atom   0C    basis set group =>   1
Atom   1O    basis set group =>   2
Atom   2C    basis set group =>   1
Atom   3C    basis set group =>   1
Atom   4C    basis set group =>   1
Atom   5H    basis set group =>   3
Atom   6H    basis set group =>   3
Atom   7H    basis set group =>   3
Atom   8H    basis set group =>   3


           ************************************************************
           *        Program running with 8 parallel MPI-processes     *
           *              working on a common directory               *
           ************************************************************
------------------------------------------------------------------------------
                           ORCA GTO INTEGRAL CALCULATION
------------------------------------------------------------------------------

                         BASIS SET STATISTICS AND STARTUP INFO

 # of primitive gaussian shells          ...  194
 # of primitive gaussian functions       ...  430
 # of contracted shells                  ...  106
 # of contracted basis functions         ...  322
 Highest angular momentum                ...    3
 Maximum contraction depth               ...    8
 Integral package used                   ... LIBINT
 Integral threshhold            Thresh   ...  2.500e-11
 Primitive cut-off              TCut     ...  2.500e-12


------------------------------ INTEGRAL EVALUATION ----------------------------


 * One electron integrals 
 Pre-screening matrix                    ... done
 Shell pair data                         ... done (   0.002 sec)



           ************************************************************
           *        Program running with 8 parallel MPI-processes     *
           *              working on a common directory               *
           ************************************************************
-------------------------------------------------------------------------------
                                 ORCA SCF
-------------------------------------------------------------------------------

------------
SCF SETTINGS
------------
Hamiltonian:
 Ab initio Hamiltonian  Method          .... Hartree-Fock(GTOs)


General Settings:
 Integral files         IntName         .... furan_CCSDT_aug-cc-pVTZ_SPE
 Hartree-Fock type      HFTyp           .... RHF
 Total Charge           Charge          ....    0
 Multiplicity           Mult            ....    1
 Number of Electrons    NEL             ....   36
 Basis Dimension        Dim             ....  322
 Nuclear Repulsion      ENuc            ....    160.9860695763 Eh

Convergence Acceleration:
 DIIS                   CNVDIIS         .... on
   Start iteration      DIISMaxIt       ....    12
   Startup error        DIISStart       ....  0.200000
   # of expansion vecs  DIISMaxEq       ....     5
   Bias factor          DIISBfac        ....   1.050
   Max. coefficient     DIISMaxC        ....  10.000
 Newton-Raphson         CNVNR           .... off
 SOSCF                  CNVSOSCF        .... on
   Start iteration      SOSCFMaxIt      ....   150
   Startup grad/error   SOSCFStart      ....  0.003300
 Level Shifting         CNVShift        .... on
   Level shift para.    LevelShift      ....    0.2500
   Turn off err/grad.   ShiftErr        ....    0.0010
 Zerner damping         CNVZerner       .... off
 Static damping         CNVDamp         .... on
   Fraction old density DampFac         ....    0.7000
   Max. Damping (<1)    DampMax         ....    0.9800
   Min. Damping (>=0)   DampMin         ....    0.0000
   Turn off err/grad.   DampErr         ....    0.1000
 Fernandez-Rico         CNVRico         .... off

SCF Procedure:
 Maximum # iterations   MaxIter         ....   125
 SCF integral mode      SCFMode         .... Direct
   Integral package                     .... LIBINT
 Reset frequency        DirectResetFreq ....    20
 Integral Threshold     Thresh          ....  2.500e-11 Eh
 Primitive CutOff       TCut            ....  2.500e-12 Eh

Convergence Tolerance:
 Convergence Check Mode ConvCheckMode   .... Total+1el-Energy
 Convergence forced     ConvForced      .... 1
 Energy Change          TolE            ....  1.000e-08 Eh
 1-El. energy change                    ....  1.000e-05 Eh
 Orbital Gradient       TolG            ....  1.000e-05
 Orbital Rotation angle TolX            ....  1.000e-05
 DIIS Error             TolErr          ....  5.000e-07


Diagonalization of the overlap matrix:
Smallest eigenvalue                        ... 3.902e-06
Time for diagonalization                   ...    0.025 sec
Threshold for overlap eigenvalues          ... 1.000e-08
Number of eigenvalues below threshold      ... 0
Time for construction of square roots      ...    0.026 sec
Total time needed                          ...    0.051 sec

-------------------
DFT GRID GENERATION
-------------------

General Integration Accuracy     IntAcc      ...  4.340
Radial Grid Type                 RadialGrid  ... Gauss-Chebyshev
Angular Grid (max. acc.)         AngularGrid ... Lebedev-110
Angular grid pruning method      GridPruning ... 3 (G Style)
Weight generation scheme         WeightScheme... Becke
Basis function cutoff            BFCut       ...    1.0000e-11
Integration weight cutoff        WCut        ...    1.0000e-14
Grids for H and He will be reduced by one unit

# of grid points (after initial pruning)     ...  11516 (   0.0 sec)
# of grid points (after weights+screening)   ...  10953 (   0.0 sec)
nearest neighbour list constructed           ...    0.0 sec
Grid point re-assignment to atoms done       ...    0.0 sec
Grid point division into batches done        ...    0.0 sec
Reduced shell lists constructed in    0.0 sec

Total number of grid points                  ...    10953
Total number of batches                      ...      177
Average number of points per batch           ...       61
Average number of grid points per atom       ...     1217
Average number of shells per batch           ...    93.96 (88.64%)
Average number of basis functions per batch  ...   286.46 (88.96%)
Average number of large shells per batch     ...    86.08 (91.62%)
Average number of large basis fcns per batch ...   263.25 (91.90%)
Maximum spatial batch extension              ...  12.32, 14.00, 19.49 au
Average spatial batch extension              ...   0.37,  0.40,  0.72 au

Time for grid setup =    0.027 sec

------------------------------
INITIAL GUESS: MODEL POTENTIAL
------------------------------
Loading Hartree-Fock densities                     ... done
Calculating cut-offs                               ... done
Setting up the integral package                    ... done
Initializing the effective Hamiltonian             ... done
Starting the Coulomb interaction                   ... done (   0.0 sec)
Reading the grid                                   ... done
Mapping shells                                     ... done
Starting the XC term evaluation                    ... done (   0.0 sec)
Transforming the Hamiltonian                       ... done (   0.0 sec)
Diagonalizing the Hamiltonian                      ... done (   0.0 sec)
Back transforming the eigenvectors                 ... done (   0.0 sec)
Now organizing SCF variables                       ... done
                      ------------------
                      INITIAL GUESS DONE (   0.2 sec)
                      ------------------
--------------
SCF ITERATIONS
--------------
ITER       Energy         Delta-E        Max-DP      RMS-DP      [F,P]     Damp
               ***  Starting incremental Fock matrix formation  ***
  0   -228.5083197828   0.000000000000 0.04135825  0.00082049  0.2076663 0.7000
  1   -228.5762026016  -0.067882818835 0.02954680  0.00064932  0.1485471 0.7000
                               ***Turning on DIIS***
  2   -228.6185605683  -0.042357966645 0.02093988  0.00047337  0.1087901 0.7000
  3   -229.1039015613  -0.485340993002 0.05486766  0.00125615  0.0795418 0.0000
  4   -228.6719426010   0.431958960237 0.00995427  0.00020816  0.0069137 0.0000
                      *** Initiating the SOSCF procedure ***
                           *** Shutting down DIIS ***
                      *** Re-Reading the Fockian *** 
                      *** Removing any level shift *** 
ITER      Energy       Delta-E        Grad      Rot      Max-DP    RMS-DP
  5   -228.70163270  -0.0296901012  0.002882  0.002882  0.003567  0.000069
               *** Restarting incremental Fock matrix formation ***
  6   -228.70896209  -0.0073293882  0.001609  0.002886  0.001220  0.000020
  7   -228.70899982  -0.0000377289  0.000724  0.003316  0.001233  0.000026
  8   -228.70901490  -0.0000150796  0.000202  0.000204  0.000313  0.000005
  9   -228.70901627  -0.0000013707  0.000080  0.000154  0.000067  0.000002
 10   -228.70901640  -0.0000001323  0.000017  0.000032  0.000027  0.000001
 11   -228.70901642  -0.0000000183  0.000010  0.000015  0.000015  0.000000
                  ***Gradient check signals convergence***
              ***Rediagonalizing the Fockian in SOSCF/NRSCF***

               *****************************************************
               *                     SUCCESS                       *
               *           SCF CONVERGED AFTER  12 CYCLES          *
               *****************************************************


----------------
TOTAL SCF ENERGY
----------------

Total Energy       :         -228.70901642 Eh           -6223.48873 eV

Components:
Nuclear Repulsion  :          160.98606958 Eh            4380.65366 eV
Electronic Energy  :         -389.69508600 Eh          -10604.14239 eV
One Electron Energy:         -628.99646925 Eh          -17115.86408 eV
Two Electron Energy:          239.30138325 Eh            6511.72169 eV

Virial components:
Potential Energy   :         -457.01495217 Eh          -12436.00908 eV
Kinetic Energy     :          228.30593574 Eh            6212.52035 eV
Virial Ratio       :            2.00176553


---------------
SCF CONVERGENCE
---------------

  Last Energy change         ...   -1.9334e-09  Tolerance :   1.0000e-08
  Last MAX-Density change    ...    2.5577e-06  Tolerance :   1.0000e-07
  Last RMS-Density change    ...    6.6628e-08  Tolerance :   5.0000e-09
  Last Orbital Gradient      ...    1.2048e-06  Tolerance :   1.0000e-05
  Last Orbital Rotation      ...    1.9265e-06  Tolerance :   1.0000e-05

             **** THE GBW FILE WAS UPDATED (furan_CCSDT_aug-cc-pVTZ_SPE.gbw) ****
             **** DENSITY FILE WAS UPDATED (furan_CCSDT_aug-cc-pVTZ_SPE.scfp) ****
             **** ENERGY FILE WAS UPDATED (furan_CCSDT_aug-cc-pVTZ_SPE.en.tmp) ****
             **** THE GBW FILE WAS UPDATED (furan_CCSDT_aug-cc-pVTZ_SPE.gbw) ****
             **** DENSITY FILE WAS UPDATED (furan_CCSDT_aug-cc-pVTZ_SPE.scfp) ****
----------------
ORBITAL ENERGIES
----------------

  NO   OCC          E(Eh)            E(eV) 
   0   2.0000     -20.626155      -561.2662 
   1   2.0000     -11.289282      -307.1970 
   2   2.0000     -11.289236      -307.1957 
   3   2.0000     -11.232367      -305.6482 
   4   2.0000     -11.231354      -305.6207 
   5   2.0000      -1.460375       -39.7388 
   6   2.0000      -1.084960       -29.5233 
   7   2.0000      -1.003974       -27.3195 
   8   2.0000      -0.807600       -21.9759 
   9   2.0000      -0.782724       -21.2990 
  10   2.0000      -0.740633       -20.1537 
  11   2.0000      -0.634602       -17.2684 
  12   2.0000      -0.611053       -16.6276 
  13   2.0000      -0.575425       -15.6581 
  14   2.0000      -0.568416       -15.4674 
  15   2.0000      -0.541095       -14.7239 
  16   2.0000      -0.399170       -10.8620 
  17   2.0000      -0.318472        -8.6661 
  18   0.0000       0.029657         0.8070 
  19   0.0000       0.035232         0.9587 
  20   0.0000       0.038135         1.0377 
  21   0.0000       0.048803         1.3280 
  22   0.0000       0.081377         2.2144 
  23   0.0000       0.089823         2.4442 
  24   0.0000       0.102257         2.7825 
  25   0.0000       0.109852         2.9892 
  26   0.0000       0.111449         3.0327 
  27   0.0000       0.113104         3.0777 
  28   0.0000       0.116413         3.1678 
  29   0.0000       0.122546         3.3346 
  30   0.0000       0.128036         3.4840 
  31   0.0000       0.134546         3.6612 
  32   0.0000       0.135785         3.6949 
  33   0.0000       0.141612         3.8534 
  34   0.0000       0.151246         4.1156 
  35   0.0000       0.158955         4.3254 
  36   0.0000       0.207570         5.6483 
  37   0.0000       0.209350         5.6967 
  38   0.0000       0.222922         6.0660 
  39   0.0000       0.231280         6.2934 
  40   0.0000       0.243776         6.6335 
  41   0.0000       0.256835         6.9888 
  42   0.0000       0.258198         7.0259 
  43   0.0000       0.270267         7.3543 
  44   0.0000       0.273396         7.4395 
  45   0.0000       0.276723         7.5300 
  46   0.0000       0.296350         8.0641 
  47   0.0000       0.304436         8.2841 
  48   0.0000       0.313239         8.5237 
  49   0.0000       0.320454         8.7200 
  50   0.0000       0.330179         8.9846 
  51   0.0000       0.331759         9.0276 
  52   0.0000       0.339073         9.2266 
  53   0.0000       0.349327         9.5057 
  54   0.0000       0.383255        10.4289 
  55   0.0000       0.387019        10.5313 
  56   0.0000       0.392730        10.6867 
  57   0.0000       0.406341        11.0571 
  58   0.0000       0.415129        11.2962 
  59   0.0000       0.426090        11.5945 
  60   0.0000       0.430264        11.7081 
  61   0.0000       0.437019        11.8919 
  62   0.0000       0.447000        12.1635 
  63   0.0000       0.450774        12.2662 
  64   0.0000       0.468539        12.7496 
  65   0.0000       0.468904        12.7595 
  66   0.0000       0.479694        13.0531 
  67   0.0000       0.484072        13.1723 
  68   0.0000       0.491108        13.3637 
  69   0.0000       0.502314        13.6687 
  70   0.0000       0.507883        13.8202 
  71   0.0000       0.519540        14.1374 
  72   0.0000       0.520338        14.1591 
  73   0.0000       0.528224        14.3737 
  74   0.0000       0.561176        15.2704 
  75   0.0000       0.574059        15.6209 
  76   0.0000       0.579148        15.7594 
  77   0.0000       0.592952        16.1350 
  78   0.0000       0.625830        17.0297 
  79   0.0000       0.627939        17.0871 
  80   0.0000       0.643644        17.5144 
  81   0.0000       0.644012        17.5245 
  82   0.0000       0.655920        17.8485 
  83   0.0000       0.710371        19.3302 
  84   0.0000       0.716231        19.4896 
  85   0.0000       0.720946        19.6179 
  86   0.0000       0.734034        19.9741 
  87   0.0000       0.734397        19.9840 
  88   0.0000       0.735030        20.0012 
  89   0.0000       0.766419        20.8553 
  90   0.0000       0.776458        21.1285 
  91   0.0000       0.784674        21.3521 
  92   0.0000       0.826560        22.4918 
  93   0.0000       0.837451        22.7882 
  94   0.0000       0.862089        23.4586 
  95   0.0000       0.867617        23.6091 
  96   0.0000       0.869695        23.6656 
  97   0.0000       0.886582        24.1251 
  98   0.0000       0.899072        24.4650 
  99   0.0000       0.907267        24.6880 
 100   0.0000       0.911526        24.8039 
 101   0.0000       0.920094        25.0370 
 102   0.0000       0.948758        25.8170 
 103   0.0000       0.949088        25.8260 
 104   0.0000       0.951731        25.8979 
 105   0.0000       0.965801        26.2808 
 106   0.0000       0.967517        26.3275 
 107   0.0000       0.983034        26.7497 
 108   0.0000       0.999420        27.1956 
 109   0.0000       1.017221        27.6800 
 110   0.0000       1.025686        27.9103 
 111   0.0000       1.040735        28.3198 
 112   0.0000       1.042808        28.3762 
 113   0.0000       1.052758        28.6470 
 114   0.0000       1.064450        28.9652 
 115   0.0000       1.078091        29.3363 
 116   0.0000       1.084094        29.4997 
 117   0.0000       1.090326        29.6693 
 118   0.0000       1.093768        29.7630 
 119   0.0000       1.113687        30.3050 
 120   0.0000       1.132843        30.8262 
 121   0.0000       1.134391        30.8683 
 122   0.0000       1.142981        31.1021 
 123   0.0000       1.145442        31.1691 
 124   0.0000       1.162981        31.6463 
 125   0.0000       1.165262        31.7084 
 126   0.0000       1.173228        31.9252 
 127   0.0000       1.214327        33.0435 
 128   0.0000       1.225035        33.3349 
 129   0.0000       1.236642        33.6507 
 130   0.0000       1.267442        34.4889 
 131   0.0000       1.271519        34.5998 
 132   0.0000       1.276291        34.7296 
 133   0.0000       1.283235        34.9186 
 134   0.0000       1.314416        35.7671 
 135   0.0000       1.363024        37.0898 
 136   0.0000       1.367448        37.2102 
 137   0.0000       1.398349        38.0510 
 138   0.0000       1.444240        39.2998 
 139   0.0000       1.455305        39.6009 
 140   0.0000       1.458443        39.6863 
 141   0.0000       1.467988        39.9460 
 142   0.0000       1.481440        40.3120 
 143   0.0000       1.497808        40.7574 
 144   0.0000       1.532625        41.7049 
 145   0.0000       1.545555        42.0567 
 146   0.0000       1.578011        42.9399 
 147   0.0000       1.596865        43.4529 
 148   0.0000       1.627988        44.2998 
 149   0.0000       1.662832        45.2480 
 150   0.0000       1.681114        45.7454 
 151   0.0000       1.688999        45.9600 
 152   0.0000       1.690943        46.0129 
 153   0.0000       1.708395        46.4878 
 154   0.0000       1.728805        47.0432 
 155   0.0000       1.739590        47.3367 
 156   0.0000       1.750776        47.6410 
 157   0.0000       1.763362        47.9835 
 158   0.0000       1.794201        48.8227 
 159   0.0000       1.833361        49.8883 
 160   0.0000       1.852385        50.4060 
 161   0.0000       1.861258        50.6474 
 162   0.0000       1.886137        51.3244 
 163   0.0000       1.896697        51.6118 
 164   0.0000       1.897789        51.6415 
 165   0.0000       1.923899        52.3520 
 166   0.0000       1.952208        53.1223 
 167   0.0000       1.964087        53.4455 
 168   0.0000       1.970576        53.6221 
 169   0.0000       1.972971        53.6873 
 170   0.0000       1.980903        53.9031 
 171   0.0000       2.010359        54.7047 
 172   0.0000       2.041995        55.5655 
 173   0.0000       2.055880        55.9433 
 174   0.0000       2.078494        56.5587 
 175   0.0000       2.091393        56.9097 
 176   0.0000       2.137398        58.1616 
 177   0.0000       2.157520        58.7091 
 178   0.0000       2.233982        60.7897 
 179   0.0000       2.252660        61.2980 
 180   0.0000       2.266982        61.6877 
 181   0.0000       2.292861        62.3919 
 182   0.0000       2.332451        63.4692 
 183   0.0000       2.355160        64.0872 
 184   0.0000       2.368783        64.4579 
 185   0.0000       2.388925        65.0060 
 186   0.0000       2.411175        65.6114 
 187   0.0000       2.412432        65.6456 
 188   0.0000       2.499259        68.0083 
 189   0.0000       2.510281        68.3082 
 190   0.0000       2.536692        69.0269 
 191   0.0000       2.578660        70.1689 
 192   0.0000       2.584790        70.3357 
 193   0.0000       2.587710        70.4152 
 194   0.0000       2.661553        72.4245 
 195   0.0000       2.751580        74.8743 
 196   0.0000       2.811236        76.4976 
 197   0.0000       2.868307        78.0506 
 198   0.0000       2.871931        78.1492 
 199   0.0000       2.903467        79.0073 
 200   0.0000       2.981262        81.1243 
 201   0.0000       3.023424        82.2715 
 202   0.0000       3.077531        83.7439 
 203   0.0000       3.081331        83.8473 
 204   0.0000       3.139179        85.4214 
 205   0.0000       3.140047        85.4450 
 206   0.0000       3.168809        86.2277 
 207   0.0000       3.192906        86.8834 
 208   0.0000       3.227528        87.8255 
 209   0.0000       3.273715        89.0823 
 210   0.0000       3.313266        90.1586 
 211   0.0000       3.327611        90.5489 
 212   0.0000       3.360472        91.4431 
 213   0.0000       3.370327        91.7113 
 214   0.0000       3.372001        91.7568 
 215   0.0000       3.375362        91.8483 
 216   0.0000       3.415035        92.9278 
 217   0.0000       3.420726        93.0827 
 218   0.0000       3.434570        93.4594 
 219   0.0000       3.542478        96.3957 
 220   0.0000       3.545225        96.4705 
 221   0.0000       3.565802        97.0304 
 222   0.0000       3.572636        97.2164 
 223   0.0000       3.600120        97.9643 
 224   0.0000       3.602813        98.0375 
 225   0.0000       3.629034        98.7510 
 226   0.0000       3.646883        99.2367 
 227   0.0000       3.658410        99.5504 
 228   0.0000       3.675311       100.0103 
 229   0.0000       3.697463       100.6131 
 230   0.0000       3.738951       101.7420 
 231   0.0000       3.796016       103.2949 
 232   0.0000       3.804527       103.5264 
 233   0.0000       3.857828       104.9768 
 234   0.0000       3.866772       105.2202 
 235   0.0000       3.873550       105.4047 
 236   0.0000       3.877015       105.4990 
 237   0.0000       3.913827       106.5006 
 238   0.0000       3.944350       107.3312 
 239   0.0000       3.966454       107.9327 
 240   0.0000       4.025407       109.5369 
 241   0.0000       4.043490       110.0290 
 242   0.0000       4.048835       110.1744 
 243   0.0000       4.070712       110.7697 
 244   0.0000       4.084411       111.1425 
 245   0.0000       4.114508       111.9615 
 246   0.0000       4.116975       112.0286 
 247   0.0000       4.141928       112.7076 
 248   0.0000       4.188077       113.9634 
 249   0.0000       4.221939       114.8848 
 250   0.0000       4.223821       114.9360 
 251   0.0000       4.243980       115.4846 
 252   0.0000       4.278119       116.4135 
 253   0.0000       4.279396       116.4483 
 254   0.0000       4.299430       116.9934 
 255   0.0000       4.304074       117.1198 
 256   0.0000       4.321288       117.5882 
 257   0.0000       4.338765       118.0638 
 258   0.0000       4.415982       120.1650 
 259   0.0000       4.458141       121.3122 
 260   0.0000       4.485567       122.0585 
 261   0.0000       4.491144       122.2103 
 262   0.0000       4.512380       122.7881 
 263   0.0000       4.572060       124.4121 
 264   0.0000       4.591103       124.9303 
 265   0.0000       4.650470       126.5457 
 266   0.0000       4.694181       127.7352 
 267   0.0000       4.783777       130.1732 
 268   0.0000       4.810741       130.9069 
 269   0.0000       4.825929       131.3202 
 270   0.0000       4.830079       131.4331 
 271   0.0000       4.887066       132.9838 
 272   0.0000       4.892993       133.1451 
 273   0.0000       4.950570       134.7119 
 274   0.0000       4.977430       135.4428 
 275   0.0000       4.978038       135.4593 
 276   0.0000       5.037508       137.0776 
 277   0.0000       5.057839       137.6308 
 278   0.0000       5.101041       138.8064 
 279   0.0000       5.107600       138.9849 
 280   0.0000       5.122185       139.3817 
 281   0.0000       5.166764       140.5948 
 282   0.0000       5.190036       141.2281 
 283   0.0000       5.208555       141.7320 
 284   0.0000       5.334134       145.1492 
 285   0.0000       5.398746       146.9073 
 286   0.0000       5.456912       148.4901 
 287   0.0000       5.486516       149.2957 
 288   0.0000       5.487830       149.3315 
 289   0.0000       5.578651       151.8028 
 290   0.0000       5.768200       156.9607 
 291   0.0000       5.782787       157.3576 
 292   0.0000       5.829440       158.6271 
 293   0.0000       5.833336       158.7331 
 294   0.0000       5.918990       161.0639 
 295   0.0000       6.140639       167.0953 
 296   0.0000       6.268213       170.5667 
 297   0.0000       6.268624       170.5779 
 298   0.0000       6.400865       174.1764 
 299   0.0000       6.480086       176.3321 
 300   0.0000       6.580403       179.0619 
 301   0.0000       6.669959       181.4988 
 302   0.0000       6.686328       181.9442 
 303   0.0000       6.747083       183.5975 
 304   0.0000       6.838339       186.0807 
 305   0.0000       6.970871       189.6870 
 306   0.0000       6.998872       190.4490 
 307   0.0000       7.041016       191.5958 
 308   0.0000       7.247822       197.2233 
 309   0.0000       7.363885       200.3815 
 310   0.0000       7.451239       202.7585 
 311   0.0000       7.574097       206.1017 
 312   0.0000       7.694465       209.3770 
 313   0.0000       7.721343       210.1084 
 314   0.0000       7.837202       213.2611 
 315   0.0000       8.303244       225.9428 
 316   0.0000       8.377166       227.9543 
 317   0.0000      14.387443       391.5022 
 318   0.0000      16.881601       459.3717 
 319   0.0000      17.564858       477.9641 
 320   0.0000      18.066809       491.6229 
 321   0.0000      18.817879       512.0605 

                    ********************************
                    * MULLIKEN POPULATION ANALYSIS *
                    ********************************

-----------------------
MULLIKEN ATOMIC CHARGES
-----------------------
   0 C :   -0.520644
   1 O :   -0.289063
   2 C :   -0.520637
   3 C :   -0.536029
   4 C :   -0.536038
   5 H :    0.717499
   6 H :    0.717497
   7 H :    0.483704
   8 H :    0.483710
Sum of atomic charges:    0.0000000

--------------------------------
MULLIKEN REDUCED ORBITAL CHARGES
--------------------------------
  0 C s       :     3.691497  s :     3.691497
      pz      :     0.968827  p :     2.706790
      px      :     1.113744
      py      :     0.624220
      dz2     :     0.001265  d :     0.084560
      dxz     :    -0.000431
      dyz     :     0.051612
      dx2y2   :     0.018458
      dxy     :     0.013657
      f0      :     0.003236  f :     0.037796
      f+1     :     0.000602
      f-1     :     0.001217
      f+2     :     0.004774
      f-2     :     0.005319
      f+3     :     0.006351
      f-3     :     0.016298
  1 O s       :     3.862906  s :     3.862906
      pz      :     1.687353  p :     4.347311
      px      :     1.288989
      py      :     1.370969
      dz2     :    -0.004053  d :     0.070553
      dxz     :     0.023082
      dyz     :     0.016650
      dx2y2   :     0.022664
      dxy     :     0.012210
      f0      :     0.001241  f :     0.008293
      f+1     :     0.000181
      f-1     :     0.000002
      f+2     :     0.002317
      f-2     :     0.000471
      f+3     :     0.001943
      f-3     :     0.002139
  2 C s       :     3.691489  s :     3.691489
      pz      :     0.968817  p :     2.706799
      px      :     0.644626
      py      :     1.093356
      dz2     :     0.001264  d :     0.084550
      dxz     :     0.040168
      dyz     :     0.011012
      dx2y2   :     0.018217
      dxy     :     0.013889
      f0      :     0.003236  f :     0.037799
      f+1     :     0.001074
      f-1     :     0.000745
      f+2     :     0.010180
      f-2     :    -0.000086
      f+3     :     0.001082
      f-3     :     0.021569
  3 C s       :     3.227619  s :     3.227619
      pz      :     1.027996  p :     3.194144
      px      :     1.060366
      py      :     1.105782
      dz2     :     0.006087  d :     0.123784
      dxz     :     0.021302
      dyz     :     0.018825
      dx2y2   :     0.065381
      dxy     :     0.012191
      f0      :     0.002003  f :    -0.009518
      f+1     :     0.000877
      f-1     :     0.001065
      f+2     :    -0.000602
      f-2     :     0.002962
      f+3     :    -0.017486
      f-3     :     0.001661
  4 C s       :     3.227623  s :     3.227623
      pz      :     1.028001  p :     3.194149
      px      :     1.138207
      py      :     1.027941
      dz2     :     0.006087  d :     0.123784
      dxz     :     0.014428
      dyz     :     0.025699
      dx2y2   :     0.095240
      dxy     :    -0.017669
      f0      :     0.002003  f :    -0.009518
      f+1     :     0.000752
      f-1     :     0.001191
      f+2     :     0.001191
      f-2     :     0.001170
      f+3     :    -0.017647
      f-3     :     0.001823
  5 H s       :     0.297828  s :     0.297828
      pz      :     0.004342  p :    -0.014344
      px      :    -0.007981
      py      :    -0.010705
      dz2     :    -0.001807  d :    -0.000983
      dxz     :     0.001527
      dyz     :     0.000704
      dx2y2   :     0.000109
      dxy     :    -0.001516
  6 H s       :     0.297832  s :     0.297832
      pz      :     0.004341  p :    -0.014346
      px      :    -0.013707
      py      :    -0.004980
      dz2     :    -0.001807  d :    -0.000983
      dxz     :     0.001242
      dyz     :     0.000989
      dx2y2   :    -0.001625
      dxy     :     0.000218
  7 H s       :     0.477369  s :     0.477369
      pz      :     0.018989  p :     0.038644
      px      :     0.011555
      py      :     0.008101
      dz2     :    -0.002682  d :     0.000283
      dxz     :     0.000003
      dyz     :     0.003059
      dx2y2   :    -0.001112
      dxy     :     0.001015
  8 H s       :     0.477365  s :     0.477365
      pz      :     0.018989  p :     0.038642
      px      :     0.009373
      py      :     0.010280
      dz2     :    -0.002682  d :     0.000283
      dxz     :     0.002638
      dyz     :     0.000423
      dx2y2   :    -0.000331
      dxy     :     0.000234


                     *******************************
                     * LOEWDIN POPULATION ANALYSIS *
                     *******************************

----------------------
LOEWDIN ATOMIC CHARGES
----------------------
   0 C :   -0.035285
   1 O :    0.544117
   2 C :   -0.035305
   3 C :    0.160136
   4 C :    0.160129
   5 H :   -0.197338
   6 H :   -0.197335
   7 H :   -0.199560
   8 H :   -0.199559

-------------------------------
LOEWDIN REDUCED ORBITAL CHARGES
-------------------------------
  0 C s       :     2.501540  s :     2.501540
      pz      :     0.623442  p :     2.206294
      px      :     0.887058
      py      :     0.695793
      dz2     :     0.078894  d :     0.847230
      dxz     :     0.068044
      dyz     :     0.172163
      dx2y2   :     0.312020
      dxy     :     0.216109
      f0      :     0.034741  f :     0.480221
      f+1     :     0.026267
      f-1     :     0.039059
      f+2     :     0.055403
      f-2     :     0.057293
      f+3     :     0.136655
      f-3     :     0.130803
  1 O s       :     2.990666  s :     2.990666
      pz      :     1.306770  p :     3.845423
      px      :     1.235667
      py      :     1.302985
      dz2     :     0.045504  d :     0.481147
      dxz     :     0.086733
      dyz     :     0.064660
      dx2y2   :     0.125108
      dxy     :     0.159141
      f0      :     0.007568  f :     0.138647
      f+1     :     0.009102
      f-1     :     0.008138
      f+2     :     0.032093
      f-2     :     0.003928
      f+3     :     0.027166
      f-3     :     0.050651
  2 C s       :     2.501536  s :     2.501536
      pz      :     0.623437  p :     2.206296
      px      :     0.676754
      py      :     0.906105
      dz2     :     0.078895  d :     0.847245
      dxz     :     0.151041
      dyz     :     0.089172
      dx2y2   :     0.245125
      dxy     :     0.283012
      f0      :     0.034741  f :     0.480228
      f+1     :     0.038404
      f-1     :     0.026923
      f+2     :     0.095902
      f-2     :     0.016796
      f+3     :     0.104443
      f-3     :     0.163018
  3 C s       :     2.501937  s :     2.501937
      pz      :     0.632682  p :     2.312657
      px      :     0.822485
      py      :     0.857491
      dz2     :     0.068310  d :     0.684012
      dxz     :     0.131240
      dyz     :     0.050278
      dx2y2   :     0.255899
      dxy     :     0.178284
      f0      :     0.020501  f :     0.341257
      f+1     :     0.026821
      f-1     :     0.025113
      f+2     :     0.010056
      f-2     :     0.073778
      f+3     :     0.115492
      f-3     :     0.069497
  4 C s       :     2.501936  s :     2.501936
      pz      :     0.632684  p :     2.312660
      px      :     0.848125
      py      :     0.831851
      dz2     :     0.068311  d :     0.684015
      dxz     :     0.068979
      dyz     :     0.112539
      dx2y2   :     0.246832
      dxy     :     0.187355
      f0      :     0.020501  f :     0.341260
      f+1     :     0.024558
      f-1     :     0.027377
      f+2     :     0.036583
      f-2     :     0.047250
      f+3     :     0.096154
      f-3     :     0.088838
  5 H s       :     0.707763  s :     0.707763
      pz      :     0.091257  p :     0.288395
      px      :     0.138393
      py      :     0.058745
      dz2     :     0.022375  d :     0.201180
      dxz     :     0.061942
      dyz     :     0.006690
      dx2y2   :     0.048275
      dxy     :     0.061898
  6 H s       :     0.707762  s :     0.707762
      pz      :     0.091257  p :     0.288394
      px      :     0.071425
      py      :     0.125712
      dz2     :     0.022375  d :     0.201179
      dxz     :     0.014278
      dyz     :     0.054354
      dx2y2   :     0.065274
      dxy     :     0.044899
  7 H s       :     0.694711  s :     0.694711
      pz      :     0.092495  p :     0.298565
      px      :     0.066661
      py      :     0.139410
      dz2     :     0.020577  d :     0.206284
      dxz     :     0.003908
      dyz     :     0.063209
      dx2y2   :     0.042884
      dxy     :     0.075707
  8 H s       :     0.694709  s :     0.694709
      pz      :     0.092495  p :     0.298565
      px      :     0.133805
      py      :     0.072264
      dz2     :     0.020577  d :     0.206284
      dxz     :     0.054641
      dyz     :     0.012476
      dx2y2   :     0.052079
      dxy     :     0.066512


                      *****************************
                      * MAYER POPULATION ANALYSIS *
                      *****************************

  NA   - Mulliken gross atomic population
  ZA   - Total nuclear charge
  QA   - Mulliken gross atomic charge
  VA   - Mayer's total valence
  BVA  - Mayer's bonded valence
  FA   - Mayer's free valence

  ATOM       NA         ZA         QA         VA         BVA        FA
  0 C      6.5206     6.0000    -0.5206     2.9138     2.9138     0.0000
  1 O      8.2891     8.0000    -0.2891     1.8624     1.8624    -0.0000
  2 C      6.5206     6.0000    -0.5206     2.9138     2.9138     0.0000
  3 C      6.5360     6.0000    -0.5360     3.2541     3.2541    -0.0000
  4 C      6.5360     6.0000    -0.5360     3.2541     3.2541     0.0000
  5 H      0.2825     1.0000     0.7175     0.4020     0.4020     0.0000
  6 H      0.2825     1.0000     0.7175     0.4020     0.4020     0.0000
  7 H      0.5163     1.0000     0.4837     0.8383     0.8383    -0.0000
  8 H      0.5163     1.0000     0.4837     0.8383     0.8383     0.0000

  Mayer bond orders larger than 0.100000
B(  0-C ,  1-O ) :   1.0357 B(  0-C ,  3-C ) :   1.3361 B(  0-C ,  5-H ) :   0.4348 
B(  1-O ,  2-C ) :   1.0357 B(  2-C ,  4-C ) :   1.3361 B(  2-C ,  6-H ) :   0.4348 
B(  3-C ,  4-C ) :   1.1703 B(  3-C ,  7-H ) :   0.8604 B(  4-C ,  8-H ) :   0.8604 


-------
TIMINGS
-------

Total SCF time: 0 days 0 hours 0 min 58 sec 

Total time                  ....      58.474 sec
Sum of individual times     ....      58.200 sec  ( 99.5%)

Fock matrix formation       ....      57.397 sec  ( 98.2%)
Diagonalization             ....       0.208 sec  (  0.4%)
Density matrix formation    ....       0.011 sec  (  0.0%)
Population analysis         ....       0.027 sec  (  0.0%)
Initial guess               ....       0.183 sec  (  0.3%)
Orbital Transformation      ....       0.000 sec  (  0.0%)
Orbital Orthonormalization  ....       0.000 sec  (  0.0%)
DIIS solution               ....       0.090 sec  (  0.2%)
SOSCF solution              ....       0.258 sec  (  0.4%)


           ************************************************************
           *        Program running with 8 parallel MPI-processes     *
           *              working on a common directory               *
           ************************************************************


------------------------------------------------------------------------------- 
                              ORCA-MATRIX DRIVEN CI                            
------------------------------------------------------------------------------- 

--------------------------------
AUTOMATIC CHOICE OF INCORE LEVEL
--------------------------------

Memory available                           ...   1000.00 MB
Memory needed for S+T                      ...    192.49 MB
Memory needed for J+K                      ...    385.39 MB
Memory needed for DIIS                     ...   2694.81 MB
Memory needed for 3-ext                    ...   2786.47 MB
Memory needed for 4-ext                    ...  32687.42 MB
Memory needed for triples                  ...   1071.72 MB
 -> Final InCoreLevel    ... 2
 -> check shows that triples correction can be computed


Wavefunction type
-----------------
Correlation treatment                      ...      CCSD     
Single excitations                         ... ON
Orbital optimization                       ... OFF
Calculation of Z vector                    ... OFF
Calculation of Brueckner orbitals          ... OFF
Perturbative triple excitations            ... ON
Calculation of F12 correction              ... OFF
Frozen core treatment                      ... chemical core (10 el)
Reference Wavefunction                     ... RHF
  Internal Orbitals:     5 ...   17 ( 13 MO's/ 26 electrons)
  Virtual  Orbitals:    18 ...  321 (304 MO's              )
Number of AO's                             ...    322
Number of electrons                        ...     36
Number of correlated electrons             ...     26

Algorithmic settings
--------------------
Integral transformation                    ... AO direct full transformation
K(C) Formation                             ... FULL-MO TRAFO
Maximum number of iterations               ...        50
Convergence tolerance (max. residuum)      ... 1.000e-05
Level shift for amplitude update           ... 2.000e-01
Maximum number of DIIS vectors             ...         7
DIIS turned on at iteration                ...         0
Damping before turning on DIIS             ...     0.500
Damping after turning on DIIS              ...     0.000
Pair specific amplitude update             ... OFF
Natural orbital iterations                 ... OFF
Perturbative natural orbital generation    ... OFF
Printlevel                                 ... 2

Memory handling:
----------------
Maximum memory for working arrays          ...   1000 MB
Data storage in matrix containers          ... UNCOMPRESSED
Data type for integral storage             ... DOUBLE
In-Core Storage of quantities:
   Amplitudes+Sigma Vector      ... YES
   J+K operators                ... YES
   DIIS vectors                 ... NO
   3-external integrals         ... NO
   4-external integrals         ... NO


Initializing the integral package          ... done
Warning: reference  - re-canonicalizations have been set to INT 1 VIRT 1

--------------------------
CLOSED-SHELL FOCK OPERATOR
--------------------------

<ss|ss>:       366796 b         8894 skpd (  2.4%)    0.035 s ( 0.000 ms/b)
<ss|sp>:      1114512 b        29450 skpd (  2.6%)    0.149 s ( 0.000 ms/b)
<ss|sd>:       800360 b        21107 skpd (  2.6%)    0.131 s ( 0.000 ms/b)
<ss|sf>:       350960 b         7142 skpd (  2.0%)    0.090 s ( 0.000 ms/b)
<ss|pp>:       447688 b        12485 skpd (  2.8%)    0.040 s ( 0.000 ms/b)
<ss|pd>:       623168 b        17034 skpd (  2.7%)    0.073 s ( 0.000 ms/b)
<ss|pf>:       273920 b         5988 skpd (  2.2%)    0.048 s ( 0.000 ms/b)
<ss|dd>:       234544 b         7683 skpd (  3.3%)    0.037 s ( 0.000 ms/b)
<ss|df>:       196880 b         4216 skpd (  2.1%)    0.048 s ( 0.000 ms/b)
<ss|ff>:        47080 b          619 skpd (  1.3%)    0.018 s ( 0.000 ms/b)
<sp|sp>:       848253 b        24444 skpd (  2.9%)    0.082 s ( 0.000 ms/b)
<sp|sd>:      1217370 b        35217 skpd (  2.9%)    0.164 s ( 0.000 ms/b)
<sp|sf>:       533820 b        12666 skpd (  2.4%)    0.110 s ( 0.000 ms/b)
<sp|pp>:       680946 b        20578 skpd (  3.0%)    0.089 s ( 0.000 ms/b)
<sp|pd>:       947856 b        27847 skpd (  2.9%)    0.199 s ( 0.000 ms/b)
<sp|pf>:       416640 b        10271 skpd (  2.5%)    0.123 s ( 0.000 ms/b)
<sp|dd>:       356748 b        12609 skpd (  3.5%)    0.109 s ( 0.000 ms/b)
<sp|df>:       299460 b         7182 skpd (  2.4%)    0.139 s ( 0.000 ms/b)
<sp|ff>:        71610 b         1214 skpd (  1.7%)    0.051 s ( 0.001 ms/b)
<sd|sd>:       437580 b        12526 skpd (  2.9%)    0.103 s ( 0.000 ms/b)
<sd|sf>:       383350 b         8059 skpd (  2.1%)    0.143 s ( 0.000 ms/b)
<sd|pp>:       489005 b        15341 skpd (  3.1%)    0.117 s ( 0.000 ms/b)
<sd|pd>:       680680 b        20618 skpd (  3.0%)    0.257 s ( 0.000 ms/b)
<sd|pf>:       299200 b         6876 skpd (  2.3%)    0.166 s ( 0.001 ms/b)
<sd|dd>:       256190 b         8801 skpd (  3.4%)    0.148 s ( 0.001 ms/b)
<sd|df>:       215050 b         4799 skpd (  2.2%)    0.199 s ( 0.001 ms/b)
<sd|ff>:        51425 b          626 skpd (  1.2%)    0.078 s ( 0.002 ms/b)
<sf|sf>:        84255 b         1131 skpd (  1.3%)    0.071 s ( 0.001 ms/b)
<sf|pp>:       214430 b         5876 skpd (  2.7%)    0.097 s ( 0.000 ms/b)
<sf|pd>:       298480 b         7096 skpd (  2.4%)    0.212 s ( 0.001 ms/b)
<sf|pf>:       131200 b         2037 skpd (  1.6%)    0.145 s ( 0.001 ms/b)
<sf|dd>:       112340 b         2902 skpd (  2.6%)    0.120 s ( 0.001 ms/b)
<sf|df>:        94300 b         1295 skpd (  1.4%)    0.179 s ( 0.002 ms/b)
<sf|ff>:        22550 b          118 skpd (  0.5%)    0.074 s ( 0.003 ms/b)
<pp|pp>:       137026 b         4314 skpd (  3.1%)    0.045 s ( 0.000 ms/b)
<pp|pd>:       380744 b        12266 skpd (  3.2%)    0.178 s ( 0.000 ms/b)
<pp|pf>:       167360 b         4764 skpd (  2.8%)    0.107 s ( 0.001 ms/b)
<pp|dd>:       143302 b         5615 skpd (  3.9%)    0.104 s ( 0.001 ms/b)
<pp|df>:       120290 b         3691 skpd (  3.1%)    0.132 s ( 0.001 ms/b)
<pp|ff>:        28765 b          722 skpd (  2.5%)    0.050 s ( 0.002 ms/b)
<pd|pd>:       265356 b         8203 skpd (  3.1%)    0.215 s ( 0.001 ms/b)
<pd|pf>:       232960 b         5778 skpd (  2.5%)    0.269 s ( 0.001 ms/b)
<pd|dd>:       199472 b         7127 skpd (  3.6%)    0.255 s ( 0.001 ms/b)
<pd|df>:       167440 b         4224 skpd (  2.5%)    0.339 s ( 0.002 ms/b)
<pd|ff>:        40040 b          617 skpd (  1.5%)    0.128 s ( 0.003 ms/b)
<pf|pf>:        51360 b          907 skpd (  1.8%)    0.100 s ( 0.002 ms/b)
<pf|dd>:        87680 b         2406 skpd (  2.7%)    0.181 s ( 0.002 ms/b)
<pf|df>:        73600 b         1270 skpd (  1.7%)    0.253 s ( 0.003 ms/b)
<pf|ff>:        17600 b          142 skpd (  0.8%)    0.100 s ( 0.006 ms/b)
<dd|dd>:        37675 b         1502 skpd (  4.0%)    0.089 s ( 0.002 ms/b)
<dd|df>:        63020 b         1793 skpd (  2.8%)    0.238 s ( 0.004 ms/b)
<dd|ff>:        15070 b          244 skpd (  1.6%)    0.092 s ( 0.006 ms/b)
<df|df>:        26565 b          476 skpd (  1.8%)    0.171 s ( 0.007 ms/b)
<df|ff>:        12650 b           99 skpd (  0.8%)    0.132 s ( 0.010 ms/b)
<ff|ff>:         1540 b            0 skpd (  0.0%)    0.032 s ( 0.021 ms/b)
Recanonicalizing the internal orbitals
Recanonicalizing the virtual orbitals
Time needed for Fock operator              ...            7.124 sec
Reference energy                           ...   -228.709016422

------------------------------
PARTIAL COULOMB TRANSFORMATION
------------------------------

Transformation type                        ... one-operator
Dimension of the basis                     ...  322
Number of internal MOs                     ...  317 (5-321)
Pair cutoff                                ... 0.000e+00 Eh
Number of AO pairs included in the trafo   ... 52003
Total Number of distinct AO pairs          ... 52003
Memory devoted for trafo                   ... 1000.0 MB 
Max. Number of MO pairs treated together   ... 2520      
Max. Number of MOs treated per batch       ...    7      
Number Format for Storage                  ... Double (8 Byte)
AO-integral source                         ... DIRECT
Integral package used                      ... LIBINT

Starting integral evaluation:
<ss|**>:      4821848 b        0 skpd     1.713 s (  0.000 ms/b)
<sp|**>:      7334166 b        0 skpd     6.671 s (  0.001 ms/b)
<sd|**>:      5266855 b        0 skpd     8.195 s (  0.002 ms/b)
<sf|**>:      2309530 b        0 skpd     5.352 s (  0.002 ms/b)
<pp|**>:      2946059 b        0 skpd     7.501 s (  0.003 ms/b)
<pd|**>:      4100824 b        0 skpd    19.079 s (  0.005 ms/b)
<pf|**>:      1802560 b        0 skpd    12.410 s (  0.007 ms/b)
<dd|**>:      1543442 b        0 skpd    11.466 s (  0.007 ms/b)
<df|**>:      1295590 b        0 skpd    13.814 s (  0.011 ms/b)
<ff|**>:       309815 b        0 skpd     4.426 s (  0.014 ms/b)
Closing buffer AOJ ( 2.44 GB; CompressionRatio= 1.00)
Collecting buffer AOJ 
    ... done with AO integral generation
Number of MO pairs included in the trafo   ... 50403
    ... Now sorting integrals
IBATCH = 1 of  3
IBATCH = 2 of  3
IBATCH = 3 of  3
Closing buffer JAO ( 2.44 GB; CompressionRatio= 1.00)
Collecting buffer JAO 
TOTAL TIME for half transformation         ...   209.954 sec
AO-integral generation                     ...    10.966 sec
Half transformation                        ...    79.702 sec
J-integral sorting                         ...   115.032 sec

-------------------------- SECOND HALF TRANSFORMATION -------------------------
Formation of (pq|rs)                       ... ok (   110.362 sec)
Integral sorting                           ... ok (   228.270 sec)

------------------
CLOSED SHELL GUESS
------------------

Initial guess performed in     0.072 sec
E(0)                                       ...   -228.709016422
E(MP2)                                     ...     -0.883727581
Initial E(tot)                             ...   -229.592744002
<T|T>                                      ...      0.275810987
Number of pairs included                   ... 91
Total number of pairs                      ... 91

------------------------------------------------
                  RHF COUPLED CLUSTER ITERATIONS
------------------------------------------------

Number of amplitudes to be optimized       ... 8413808

Iter       E(tot)           E(Corr)          Delta-E          Residual     Time
  0   -229.592744002     -0.883727581      0.000000000      0.014601004  159.81
                           *** Turning on DIIS ***
  1   -229.578698348     -0.869681926      0.014045654      0.006190279   36.92
  2   -229.599345956     -0.890329535     -0.020647608      0.002952908   37.26
  3   -229.603471298     -0.894454876     -0.004125341      0.001508925   37.65
  4   -229.604689286     -0.895672864     -0.001217988      0.000708756   37.73
  5   -229.604934609     -0.895918188     -0.000245323      0.000326090   37.71
  6   -229.604994875     -0.895978453     -0.000060266      0.000190204   37.93
  7   -229.605007648     -0.895991226     -0.000012773      0.000089190   37.67
  8   -229.605010070     -0.895993649     -0.000002423      0.000036578   37.75
  9   -229.605009983     -0.895993561      0.000000087      0.000010440   37.81
 10   -229.605009693     -0.895993271      0.000000290      0.000003060   37.74
               --- The Coupled-Cluster iterations have converged ---

----------------------
COUPLED CLUSTER ENERGY
----------------------

E(0)                                       ...   -228.709016422
E(CORR)                                    ...     -0.895993271
E(TOT)                                     ...   -229.605009693
Singles Norm <S|S>**1/2                    ...      0.068403415  
T1 diagnostic                              ...      0.013415013  

------------------
LARGEST AMPLITUDES
------------------
  17-> 35  17-> 35       0.062526
  17-> 38  17-> 38       0.038678
  17-> 38  16-> 35       0.036815
  16-> 38  16-> 38       0.035945
  16-> 35  16-> 35       0.031700
  17-> 35  17-> 24       0.026698
  17-> 24  17-> 35       0.026698
  16-> 35  -1-> -1       0.023660
  11-> 35  -1-> -1       0.021070
  17-> 35  17-> 52       0.018668
  17-> 52  17-> 35       0.018668
  11-> 35  11-> 35       0.018424
  17-> 35  11-> 38       0.018390
  16-> 59  16-> 38       0.018352
  16-> 38  16-> 59       0.018352
  17-> 35  17-> 22       0.016574


        !!!!!!!!!!!!!!!!!!!!!!!!!!!!!!!!!!!!!!!!!!!!!!!!!!!!!!!!!!!!!!!!!!!!!!!!!! 
        !  Warning: Densities are linearized densities !                         !
        !!!!!!!!!!!!!!!!!!!!!!!!!!!!!!!!!!!!!!!!!!!!!!!!!!!!!!!!!!!!!!!!!!!!!!!!!! 

Trace of internal density part =     -0.593140513
Trace of external density part =      0.593140513
----------------------
RHF TRIPLES CORRECTION (Algorithm 1)
----------------------

Multiplier for the singles contribution    ...      1.000000000

10% done
20% done
30% done
40% done
50% done
60% done
70% done
80% done
90% done

Triples Correction (T)                     ...     -0.046039101
Scaling of triples based on CCSD energies (Peterson et al. Molecular Physics 113, 1551 (2015))
E(T*) = f*E(T) where f = E(F12-CCSD)/E(CCSD) 
f = CCSD (with F12)/ CCSD (without F12)    ...      1.000000000
Scaled triples correction (T)              ...     -0.046039101

Final correlation energy                   ...     -0.942032372
E(CCSD)                                    ...   -229.605009693
E(CCSD(T))                                 ...   -229.651048794

NORM  =      1.301249284 sqrt=     1.140723141
W(HF) =      0.768492258
------------------------------------------------------------------------------
                           ORCA POPULATION ANALYSIS
------------------------------------------------------------------------------
Input electron density              ... furan_CCSDT_aug-cc-pVTZ_SPE.mdcip
BaseName (.gbw .S,...)              ... furan_CCSDT_aug-cc-pVTZ_SPE

                    ********************************
                    * MULLIKEN POPULATION ANALYSIS *
                    ********************************

-----------------------
MULLIKEN ATOMIC CHARGES
-----------------------
   0 C :   -0.562818
   1 O :   -0.180826
   2 C :   -0.562813
   3 C :   -0.523843
   4 C :   -0.523850
   5 H :    0.698798
   6 H :    0.698799
   7 H :    0.478273
   8 H :    0.478280
Sum of atomic charges:    0.0000000

--------------------------------
MULLIKEN REDUCED ORBITAL CHARGES
--------------------------------
  0 C s       :     3.670358  s :     3.670358
      pz      :     1.004584  p :     2.757054
      px      :     1.108048
      py      :     0.644422
      dz2     :     0.007159  d :     0.100492
      dxz     :     0.006603
      dyz     :     0.053576
      dx2y2   :     0.023094
      dxy     :     0.010059
      f0      :     0.003458  f :     0.034914
      f+1     :     0.001158
      f-1     :     0.001548
      f+2     :     0.004470
      f-2     :     0.004767
      f+3     :     0.004676
      f-3     :     0.014836
  1 O s       :     3.846543  s :     3.846543
      pz      :     1.610638  p :     4.217033
      px      :     1.264508
      py      :     1.341887
      dz2     :     0.002129  d :     0.104071
      dxz     :     0.029953
      dyz     :     0.023479
      dx2y2   :     0.028793
      dxy     :     0.019717
      f0      :     0.001690  f :     0.013180
      f+1     :     0.000809
      f-1     :     0.000620
      f+2     :     0.003010
      f-2     :     0.001255
      f+3     :     0.002840
      f-3     :     0.002954
  2 C s       :     3.670348  s :     3.670348
      pz      :     1.004577  p :     2.757065
      px      :     0.668441
      py      :     1.084047
      dz2     :     0.007159  d :     0.100483
      dxz     :     0.045872
      dyz     :     0.014308
      dx2y2   :     0.018217
      dxy     :     0.014927
      f0      :     0.003458  f :     0.034917
      f+1     :     0.001358
      f-1     :     0.001348
      f+2     :     0.008808
      f-2     :     0.000429
      f+3     :     0.000286
      f-3     :     0.019229
  3 C s       :     3.211167  s :     3.211167
      pz      :     1.027954  p :     3.188270
      px      :     1.062810
      py      :     1.097506
      dz2     :     0.011679  d :     0.134543
      dxz     :     0.019090
      dyz     :     0.021447
      dx2y2   :     0.066876
      dxy     :     0.015452
      f0      :     0.002019  f :    -0.010138
      f+1     :     0.001436
      f-1     :     0.001947
      f+2     :     0.000091
      f-2     :     0.001014
      f+3     :    -0.018719
      f-3     :     0.002074
  4 C s       :     3.211172  s :     3.211172
      pz      :     1.027955  p :     3.188273
      px      :     1.130325
      py      :     1.029993
      dz2     :     0.011679  d :     0.134542
      dxz     :     0.018061
      dyz     :     0.022477
      dx2y2   :     0.096614
      dxy     :    -0.014288
      f0      :     0.002019  f :    -0.010137
      f+1     :     0.001589
      f-1     :     0.001794
      f+2     :     0.000705
      f-2     :     0.000400
      f+3     :    -0.018011
      f-3     :     0.001367
  5 H s       :     0.316410  s :     0.316410
      pz      :     0.005255  p :    -0.013581
      px      :    -0.010894
      py      :    -0.007942
      dz2     :    -0.001765  d :    -0.001627
      dxz     :     0.000693
      dyz     :     0.000679
      dx2y2   :     0.000035
      dxy     :    -0.001268
  6 H s       :     0.316411  s :     0.316411
      pz      :     0.005254  p :    -0.013583
      px      :    -0.011532
      py      :    -0.007305
      dz2     :    -0.001765  d :    -0.001627
      dxz     :     0.001071
      dyz     :     0.000301
      dx2y2   :    -0.001668
      dxy     :     0.000436
  7 H s       :     0.484912  s :     0.484912
      pz      :     0.019229  p :     0.037595
      px      :     0.013792
      py      :     0.004574
      dz2     :    -0.002667  d :    -0.000780
      dxz     :     0.000001
      dyz     :     0.002023
      dx2y2   :    -0.000927
      dxy     :     0.000790
  8 H s       :     0.484908  s :     0.484908
      pz      :     0.019229  p :     0.037593
      px      :     0.006373
      py      :     0.011991
      dz2     :    -0.002667  d :    -0.000780
      dxz     :     0.001766
      dyz     :     0.000257
      dx2y2   :    -0.000220
      dxy     :     0.000084


                     *******************************
                     * LOEWDIN POPULATION ANALYSIS *
                     *******************************

----------------------
LOEWDIN ATOMIC CHARGES
----------------------
   0 C :   -0.049578
   1 O :    0.581262
   2 C :   -0.049597
   3 C :    0.148452
   4 C :    0.148446
   5 H :   -0.196224
   6 H :   -0.196221
   7 H :   -0.193270
   8 H :   -0.193269

-------------------------------
LOEWDIN REDUCED ORBITAL CHARGES
-------------------------------
  0 C s       :     2.503518  s :     2.503518
      pz      :     0.647494  p :     2.224064
      px      :     0.878364
      py      :     0.698206
      dz2     :     0.084079  d :     0.846940
      dxz     :     0.070660
      dyz     :     0.165127
      dx2y2   :     0.311857
      dxy     :     0.215218
      f0      :     0.033900  f :     0.475056
      f+1     :     0.026969
      f-1     :     0.039622
      f+2     :     0.052234
      f-2     :     0.057194
      f+3     :     0.135531
      f-3     :     0.129605
  1 O s       :     2.994255  s :     2.994255
      pz      :     1.259883  p :     3.764503
      px      :     1.221372
      py      :     1.283248
      dz2     :     0.051924  d :     0.511479
      dxz     :     0.092306
      dyz     :     0.069936
      dx2y2   :     0.132433
      dxy     :     0.164880
      f0      :     0.009314  f :     0.148501
      f+1     :     0.010109
      f-1     :     0.009052
      f+2     :     0.033779
      f-2     :     0.005305
      f+3     :     0.029298
      f-3     :     0.051643
  2 C s       :     2.503514  s :     2.503514
      pz      :     0.647489  p :     2.224067
      px      :     0.680322
      py      :     0.896256
      dz2     :     0.084079  d :     0.846954
      dxz     :     0.145386
      dyz     :     0.090406
      dx2y2   :     0.245405
      dxy     :     0.281677
      f0      :     0.033901  f :     0.475062
      f+1     :     0.038897
      f-1     :     0.027695
      f+2     :     0.092040
      f-2     :     0.017389
      f+3     :     0.105868
      f-3     :     0.159272
  3 C s       :     2.502799  s :     2.502799
      pz      :     0.639327  p :     2.304152
      px      :     0.814391
      py      :     0.850435
      dz2     :     0.073808  d :     0.694797
      dxz     :     0.128699
      dyz     :     0.054700
      dx2y2   :     0.257046
      dxy     :     0.180544
      f0      :     0.022517  f :     0.349799
      f+1     :     0.027783
      f-1     :     0.025912
      f+2     :     0.011433
      f-2     :     0.074803
      f+3     :     0.115602
      f-3     :     0.071748
  4 C s       :     2.502798  s :     2.502798
      pz      :     0.639328  p :     2.304154
      px      :     0.840576
      py      :     0.824249
      dz2     :     0.073809  d :     0.694801
      dxz     :     0.069859
      dyz     :     0.113540
      dx2y2   :     0.248239
      dxy     :     0.189354
      f0      :     0.022518  f :     0.349802
      f+1     :     0.025440
      f-1     :     0.028256
      f+2     :     0.036739
      f-2     :     0.049498
      f+3     :     0.097283
      f-3     :     0.090070
  5 H s       :     0.696635  s :     0.696635
      pz      :     0.091470  p :     0.296120
      px      :     0.141430
      py      :     0.063220
      dz2     :     0.022570  d :     0.203470
      dxz     :     0.062674
      dyz     :     0.006999
      dx2y2   :     0.049180
      dxy     :     0.062047
  6 H s       :     0.696633  s :     0.696633
      pz      :     0.091469  p :     0.296119
      px      :     0.075549
      py      :     0.129100
      dz2     :     0.022570  d :     0.203469
      dxz     :     0.015714
      dyz     :     0.053959
      dx2y2   :     0.065238
      dxy     :     0.045989
  7 H s       :     0.682442  s :     0.682442
      pz      :     0.091009  p :     0.304919
      px      :     0.071032
      py      :     0.142877
      dz2     :     0.020790  d :     0.205910
      dxz     :     0.004092
      dyz     :     0.062367
      dx2y2   :     0.043853
      dxy     :     0.074807
  8 H s       :     0.682441  s :     0.682441
      pz      :     0.091009  p :     0.304918
      px      :     0.137131
      py      :     0.076778
      dz2     :     0.020790  d :     0.205910
      dxz     :     0.054935
      dyz     :     0.011524
      dx2y2   :     0.052482
      dxy     :     0.066178


                      *****************************
                      * MAYER POPULATION ANALYSIS *
                      *****************************

  NA   - Mulliken gross atomic population
  ZA   - Total nuclear charge
  QA   - Mulliken gross atomic charge
  VA   - Mayer's total valence
  BVA  - Mayer's bonded valence
  FA   - Mayer's free valence

  ATOM       NA         ZA         QA         VA         BVA        FA
  0 C      6.5628     6.0000    -0.5628     3.1029     2.7118     0.3911
  1 O      8.1808     8.0000    -0.1808     2.2901     1.8448     0.4453
  2 C      6.5628     6.0000    -0.5628     3.1029     2.7118     0.3911
  3 C      6.5238     6.0000    -0.5238     3.3724     2.9664     0.4060
  4 C      6.5238     6.0000    -0.5238     3.3724     2.9664     0.4060
  5 H      0.3012     1.0000     0.6988     0.4314     0.3750     0.0564
  6 H      0.3012     1.0000     0.6988     0.4314     0.3750     0.0564
  7 H      0.5217     1.0000     0.4783     0.8421     0.7739     0.0682
  8 H      0.5217     1.0000     0.4783     0.8421     0.7739     0.0682

  Mayer bond orders larger than 0.100000
B(  0-C ,  1-O ) :   1.0113 B(  0-C ,  3-C ) :   1.1593 B(  0-C ,  5-H ) :   0.4077 
B(  1-O ,  2-C ) :   1.0113 B(  2-C ,  4-C ) :   1.1593 B(  2-C ,  6-H ) :   0.4077 
B(  3-C ,  4-C ) :   1.1200 B(  3-C ,  7-H ) :   0.7932 B(  4-C ,  8-H ) :   0.7932 




------------------------------------------------------------------------------- 
                                     TIMINGS                                   
------------------------------------------------------------------------------- 


Total execution time                   ...     1668.212 sec

Fock Matrix Formation                  ...        7.124 sec (  0.4%)
Initial Guess                          ...        0.072 sec (  0.0%)
DIIS Solver                            ...        6.768 sec (  0.4%)
State Vector Update                    ...        0.425 sec (  0.0%)
Sigma-vector construction              ...      528.779 sec ( 31.7%)
  <0|H|D>                              ...        0.087 sec (  0.0% of sigma)
  <D|H|D>(0-ext)                       ...        2.231 sec (  0.4% of sigma)
  <D|H|D>(2-ext Fock)                  ...        1.216 sec (  0.2% of sigma)
  <D|H|D>(2-ext)                       ...       47.939 sec (  9.1% of sigma)
  <D|H|D>(4-ext)                       ...      218.542 sec ( 41.3% of sigma)
  <D|H|D>(4-ext-corr)                  ...       76.642 sec ( 14.5% of sigma)
  <S|H|0>                              ...        0.040 sec (  0.0% of sigma)
  <S|H|S>                              ...        0.095 sec (  0.0% of sigma)
  <S|H|D>(1-ext)                       ...        0.472 sec (  0.1% of sigma)
  <D|H|S>(1-ext)                       ...        0.779 sec (  0.1% of sigma)
  <S|H|D>(3-ext)                       ...       17.110 sec (  3.2% of sigma)
  Fock-dressing                        ...       56.983 sec ( 10.8% of sigma)
  (ik|jl)-dressing                     ...        1.998 sec (  0.4% of sigma)
  (ij|ab),(ia|jb)-dressing             ...      102.741 sec ( 19.4% of sigma)
  Pair energies                        ...        0.082 sec (  0.0% of sigma)
Total Time for computing (T)           ...      512.818 sec ( 30.7% of ALL)
  I/O of integral and amplitudes       ...        9.258 sec (  1.8% of (T))
  N**6 sorting step                    ...       31.684 sec (  6.2% of (T))
  External N**7 contributions          ...      438.288 sec ( 85.5% of (T))
  Internal N**7 contributions          ...       21.896 sec (  4.3% of (T))
  N**6 triples energy contributions    ...       11.693 sec (  2.3% of (T))
One-particle density matrix            ...        0.166 sec (  0.0%)


-------------------------   --------------------
FINAL SINGLE POINT ENERGY      -229.651048794055
-------------------------   --------------------


                            ***************************************
                            *     ORCA property calculations      *
                            ***************************************

                                    ---------------------
                                    Active property flags
                                    ---------------------
   (+) Dipole Moment


------------------------------------------------------------------------------
                       ORCA ELECTRIC PROPERTIES CALCULATION
------------------------------------------------------------------------------

Dipole Moment Calculation                       ... on
Quadrupole Moment Calculation                   ... off
Polarizability Calculation                      ... off
GBWName                                         ... furan_CCSDT_aug-cc-pVTZ_SPE.gbw
Electron density file                           ... furan_CCSDT_aug-cc-pVTZ_SPE.scfp
The origin for moment calculation is the CENTER OF MASS  = ( 1.268425,  1.766761 -0.000000)

-------------
DIPOLE MOMENT
-------------
                                X             Y             Z
Electronic contribution:     -0.93148      -1.29696      -0.00000
Nuclear contribution   :      1.10746       1.54200       0.00000
                        -----------------------------------------
Total Dipole Moment    :      0.17598       0.24503       0.00000
                        -----------------------------------------
Magnitude (a.u.)       :      0.30168
Magnitude (Debye)      :      0.76681



--------------------
Rotational spectrum 
--------------------
 
Rotational constants in cm-1:     0.317553     0.308215     0.156407 
Rotational constants in MHz :  9520.004856  9240.043848  4688.967693 

 Dipole components along the rotational axes: 
x,y,z [a.u.] :     0.301680     0.000001     0.000000 
x,y,z [Debye]:     0.766809     0.000003     0.000000 

 

                           *** MDCI DENSITY ***

------------------------------------------------------------------------------
                       ORCA ELECTRIC PROPERTIES CALCULATION
------------------------------------------------------------------------------

Dipole Moment Calculation                       ... on
Quadrupole Moment Calculation                   ... off
Polarizability Calculation                      ... off
GBWName                                         ... furan_CCSDT_aug-cc-pVTZ_SPE.gbw
Electron density file                           ... furan_CCSDT_aug-cc-pVTZ_SPE.mdcip
The origin for moment calculation is the CENTER OF MASS  = ( 1.268425,  1.766761 -0.000000)

-------------
DIPOLE MOMENT
-------------
                                X             Y             Z
Electronic contribution:     -0.97352      -1.35550      -0.00000
Nuclear contribution   :      1.10746       1.54200       0.00000
                        -----------------------------------------
Total Dipole Moment    :      0.13394       0.18649       0.00000
                        -----------------------------------------
Magnitude (a.u.)       :      0.22961
Magnitude (Debye)      :      0.58361



--------------------
Rotational spectrum 
--------------------
 
Rotational constants in cm-1:     0.317553     0.308215     0.156407 
Rotational constants in MHz :  9520.004856  9240.043848  4688.967693 

 Dipole components along the rotational axes: 
x,y,z [a.u.] :     0.229607     0.000002     0.000000 
x,y,z [Debye]:     0.583614     0.000004     0.000000 

 

Timings for individual modules:

Sum of individual times         ...     1729.816 sec (=  28.830 min)
GTO integral calculation        ...        0.523 sec (=   0.009 min)   0.0 %
SCF iterations                  ...       58.633 sec (=   0.977 min)   3.4 %
MDCI module                     ...     1670.660 sec (=  27.844 min)  96.6 %
                             ****ORCA TERMINATED NORMALLY****
TOTAL RUN TIME: 0 days 0 hours 28 minutes 50 seconds 416 msec
