
                                 *****************
                                 * O   R   C   A *
                                 *****************

           --- An Ab Initio, DFT and Semiempirical electronic structure package ---

                  #######################################################
                  #                        -***-                        #
                  #          Department of theory and spectroscopy      #
                  #               Directorship: Frank Neese             #
                  #        Max Planck Institute fuer Kohlenforschung    #
                  #                Kaiser Wilhelm Platz 1               #
                  #                 D-45470 Muelheim/Ruhr               #
                  #                      Germany                        #
                  #                                                     #
                  #                  All rights reserved                #
                  #                        -***-                        #
                  #######################################################


                         Program Version 4.2.1 -  RELEASE  -


 With contributions from (in alphabetic order):
   Daniel Aravena         : Magnetic Suceptibility
   Michael Atanasov       : Ab Initio Ligand Field Theory (pilot matlab implementation)
   Alexander A. Auer      : GIAO ZORA, VPT2
   Ute Becker             : Parallelization
   Giovanni Bistoni       : ED, misc. LED, open-shell LED, HFLD
   Martin Brehm           : Molecular dynamics
   Dmytro Bykov           : SCF Hessian
   Vijay G. Chilkuri      : MRCI spin determinant printing, contributions to CSF-ICE
   Dipayan Datta          : RHF DLPNO-CCSD density
   Achintya Kumar Dutta   : EOM-CC, STEOM-CC
   Dmitry Ganyushin       : Spin-Orbit,Spin-Spin,Magnetic field MRCI
   Miquel Garcia          : C-PCM Hessian, Gaussian charge scheme
   Yang Guo               : DLPNO-NEVPT2, CIM, IAO-localization
   Andreas Hansen         : Spin unrestricted coupled pair/coupled cluster methods
   Benjamin Helmich-Paris : CASSCF linear response (MC-RPA)
   Lee Huntington         : MR-EOM, pCC
   Robert Izsak           : Overlap fitted RIJCOSX, COSX-SCS-MP3, EOM
   Christian Kollmar      : KDIIS, OOCD, Brueckner-CCSD(T), CCSD density
   Simone Kossmann        : Meta GGA functionals, TD-DFT gradient, OOMP2, MP2 Hessian
   Martin Krupicka        : AUTO-CI
   Lucas Lang             : DCDCAS
   Dagmar Lenk            : GEPOL surface, SMD
   Dimitrios Liakos       : Extrapolation schemes; Compound Job, initial MDCI parallelization
   Dimitrios Manganas     : Further ROCIS development; embedding schemes
   Dimitrios Pantazis     : SARC Basis sets
   Taras Petrenko         : DFT Hessian,TD-DFT gradient, ASA, ECA, R-Raman, ABS, FL, XAS/XES, NRVS
   Peter Pinski           : DLPNO-MP2, DLPNO-MP2 Gradient
   Christoph Reimann      : Effective Core Potentials
   Marius Retegan         : Local ZFS, SOC
   Christoph Riplinger    : Optimizer, TS searches, QM/MM, DLPNO-CCSD(T), (RO)-DLPNO pert. Triples
   Tobias Risthaus        : Range-separated hybrids, TD-DFT gradient, RPA, STAB
   Michael Roemelt        : Original ROCIS implementation
   Masaaki Saitow         : Open-shell DLPNO-CCSD energy and density
   Barbara Sandhoefer     : DKH picture change effects
   Avijit Sen             : IP-ROCIS
   Kantharuban Sivalingam : CASSCF convergence, NEVPT2, FIC-MRCI
   Bernardo de Souza      : ESD, SOC TD-DFT
   Georgi Stoychev        : AutoAux, RI-MP2 NMR
   Willem Van den Heuvel  : Paramagnetic NMR
   Boris Wezisla          : Elementary symmetry handling
   Frank Wennmohs         : Technical directorship


 We gratefully acknowledge several colleagues who have allowed us to
 interface, adapt or use parts of their codes:
   Stefan Grimme, W. Hujo, H. Kruse,             : VdW corrections, initial TS optimization,
                  C. Bannwarth                     DFT functionals, gCP, sTDA/sTD-DF
   Ed Valeev, F. Pavosevic, A. Kumar             : LibInt (2-el integral package), F12 methods
   Garnet Chan, S. Sharma, J. Yang, R. Olivares  : DMRG
   Ulf Ekstrom                                   : XCFun DFT Library
   Mihaly Kallay                                 : mrcc  (arbitrary order and MRCC methods)
   Andreas Klamt, Michael Diedenhofen            : otool_cosmo (COSMO solvation model)
   Jiri Pittner, Ondrej Demel                    : Mk-CCSD
   Frank Weinhold                                : gennbo (NPA and NBO analysis)
   Christopher J. Cramer and Donald G. Truhlar   : smd solvation model
   Lars Goerigk                                  : TD-DFT with DH, B97 family of functionals
   V. Asgeirsson, H. Jonsson                     : NEB implementation
   FAccTs GmbH                                   : IRC, NEB, NEB-TS, Multilevel, MM, QM/MM, CI optimization
   S Lehtola, MJT Oliveira, MAL Marques          : LibXC Library


 Your calculation uses the libint2 library for the computation of 2-el integrals
 For citations please refer to: http://libint.valeyev.net

 Your ORCA version has been built with support for libXC version: 4.2.3
 For citations please refer to: https://tddft.org/programs/libxc/

 This ORCA versions uses:
   CBLAS   interface :  Fast vector & matrix operations
   LAPACKE interface :  Fast linear algebra routines
   SCALAPACK package :  Parallel linear algebra routines




***************************************
The coordinates will be read from file: furan_B3LYP_cc-pVTZ_OPT.xyz
***************************************


----- Orbital basis set information -----
Your calculation utilizes the basis: aug-cc-pVTZ 
    H, B-Ne : Obtained from the ccRepo (grant-hill.group.shef.ac.uk/ccrepo) Feb. 2017
              R. A. Kendall, T. H. Dunning, Jr., R. J. Harrison, J. Chem. Phys. 96, 6796 (1992)
         He : Obtained from the ccRepo (grant-hill.group.shef.ac.uk/ccrepo) Feb. 2017
              D. E. Woon, T. H. Dunning, Jr., J. Chem. Phys. 100, 2975 (1994)
  Li-Be, Na : Obtained from the ccRepo (grant-hill.group.shef.ac.uk/ccrepo) Feb. 2017
              B. P. Prascher, D. E. Woon, K. A. Peterson, T. H. Dunning, Jr., A. K. Wilson, Theor. Chem. Acc. 128, 69 (2011)
         Mg : Obtained from the Peterson Research Group Website (tyr0.chem.wsu.edu/~kipeters) Feb. 2017
              B. P. Prascher, D. E. Woon, K. A. Peterson, T. H. Dunning, Jr., A. K. Wilson, Theor. Chem. Acc. 128, 69 (2011)
      Al-Ar : Obtained from the ccRepo (grant-hill.group.shef.ac.uk/ccrepo) Feb. 2017
              D. E. Woon, T. H. Dunning, Jr., J. Chem. Phys. 98, 1358 (1993)
      Sc-Zn : Obtained from the ccRepo (grant-hill.group.shef.ac.uk/ccrepo) Feb. 2017
              N. B. Balabanov, K. A. Peterson, J. Chem. Phys. 123, 064107 (2005)
              N. B. Balabanov, K. A. Peterson, J. Chem. Phys. 125, 074110 (2006)
      Ga-Kr : Obtained from the ccRepo (grant-hill.group.shef.ac.uk/ccrepo) Feb. 2017
              A. K. Wilson, D. E. Woon, K. A. Peterson, T. H. Dunning, Jr., J. Chem. Phys. 110, 7667 (1999)
     Ag, Au : Obtained from the Peterson Research Group Website (tyr0.chem.wsu.edu/~kipeters) Feb. 2017
              K. A. Peterson, C. Puzzarini, Theor. Chem. Acc. 114, 283 (2005)

================================================================================
                                        WARNINGS
                       Please study these warnings very carefully!
================================================================================


WARNING: The frozen-core approximation for MP2-gradient calculations is turned on by default.

WARNING: Geometry Optimization
  ===> : Switching off AutoStart
         For restart on a previous wavefunction, please use MOREAD

WARNING: Post HF methods need fully converged wavefunctions
  ===> : Setting SCFConvForced true
         You can overwrite this default with %scf ConvForced false 


INFO   : the flag for use of LIBINT has been found!

================================================================================
                                       INPUT FILE
================================================================================
NAME = furan_MP2_aug-cc-pVTZ_OPT.inp
|  1> # furan MP2/aug-cc-pVTZ Optimization
|  2> 
|  3> ! MP2 aug-cc-pVTZ TightSCF Opt PAL16
|  4> %maxcore 1000
|  5> 
|  6> * xyzfile 0 1 furan_B3LYP_cc-pVTZ_OPT.xyz
|  7> 
|  8> 
|  9>                          ****END OF INPUT****
================================================================================

                       *****************************
                       * Geometry Optimization Run *
                       *****************************

Geometry optimization settings:
Update method            Update   .... BFGS
Choice of coordinates    CoordSys .... Z-matrix Internals
Initial Hessian          InHess   .... Almoef's Model

Convergence Tolerances:
Energy Change            TolE     ....  5.0000e-06 Eh
Max. Gradient            TolMAXG  ....  3.0000e-04 Eh/bohr
RMS Gradient             TolRMSG  ....  1.0000e-04 Eh/bohr
Max. Displacement        TolMAXD  ....  4.0000e-03 bohr
RMS Displacement         TolRMSD  ....  2.0000e-03 bohr
Strict Convergence                ....  False
------------------------------------------------------------------------------
                        ORCA OPTIMIZATION COORDINATE SETUP
------------------------------------------------------------------------------

The optimization will be done in new redundant internal coordinates
Making redundant internal coordinates   ...  (new redundants) done
Evaluating the initial hessian          ...  (Almloef) done
Evaluating the coordinates              ...  done
Calculating the B-matrix                .... done
Calculating the G-matrix                .... done
Diagonalizing the G-matrix              .... done
The first mode is                       ....   17
The number of degrees of freedom        ....   21

    -----------------------------------------------------------------
                    Redundant Internal Coordinates


    -----------------------------------------------------------------
         Definition                    Initial Value    Approx d2E/dq
    -----------------------------------------------------------------
      1. B(O   1,C   0)                  1.3616         0.621218   
      2. B(C   2,O   1)                  1.3615         0.621319   
      3. B(C   3,C   0)                  1.3547         0.711414   
      4. B(C   4,C   3)                  1.4319         0.535730   
      5. B(C   4,C   2)                  1.3550         0.710551   
      6. B(H   5,C   0)                  1.0752         0.380265   
      7. B(H   6,C   2)                  1.0749         0.380597   
      8. B(H   7,C   3)                  1.0767         0.378190   
      9. B(H   8,C   4)                  1.0763         0.378685   
     10. A(O   1,C   0,C   3)          110.4440         0.442204   
     11. A(O   1,C   0,H   5)          115.9408         0.354103   
     12. A(C   3,C   0,H   5)          133.6151         0.364632   
     13. A(C   0,O   1,C   2)          106.7972         0.428725   
     14. A(O   1,C   2,C   4)          110.4352         0.442120   
     15. A(O   1,C   2,H   6)          115.9690         0.354165   
     16. A(C   4,C   2,H   6)          133.5958         0.364610   
     17. A(C   0,C   3,H   7)          126.4154         0.364291   
     18. A(C   0,C   3,C   4)          106.1667         0.433399   
     19. A(C   4,C   3,H   7)          127.4179         0.347174   
     20. A(C   3,C   4,H   8)          127.4231         0.347250   
     21. A(C   2,C   4,H   8)          126.4199         0.364296   
     22. A(C   2,C   4,C   3)          106.1569         0.433304   
     23. D(C   2,O   1,C   0,H   5)   -180.0000         0.028321   
     24. D(C   2,O   1,C   0,C   3)      0.0000         0.028321   
     25. D(C   4,C   2,O   1,C   0)     -0.0000         0.028331   
     26. D(H   6,C   2,O   1,C   0)    180.0000         0.028331   
     27. D(C   4,C   3,C   0,H   5)   -180.0000         0.035744   
     28. D(C   4,C   3,C   0,O   1)      0.0000         0.035744   
     29. D(H   7,C   3,C   0,O   1)   -180.0000         0.035744   
     30. D(H   7,C   3,C   0,H   5)     -0.0000         0.035744   
     31. D(C   2,C   4,C   3,H   7)    180.0000         0.019602   
     32. D(C   2,C   4,C   3,C   0)     -0.0000         0.019602   
     33. D(H   8,C   4,C   2,H   6)     -0.0000         0.035650   
     34. D(H   8,C   4,C   2,O   1)   -180.0000         0.035650   
     35. D(C   3,C   4,C   2,H   6)   -180.0000         0.035650   
     36. D(H   8,C   4,C   3,C   0)    180.0000         0.019602   
     37. D(C   3,C   4,C   2,O   1)      0.0000         0.035650   
     38. D(H   8,C   4,C   3,H   7)      0.0000         0.019602   
    -----------------------------------------------------------------

Number of atoms                         .... 9
Number of degrees of freedom            .... 38

         *************************************************************
         *                GEOMETRY OPTIMIZATION CYCLE   1            *
         *************************************************************
---------------------------------
CARTESIAN COORDINATES (ANGSTROEM)
---------------------------------
  C     -0.402260    1.313927   -0.000000
  O      0.011870    0.016872   -0.000000
  C      1.373217    0.038504    0.000000
  C      0.663016    2.150759    0.000000
  C      1.826076    1.315577   -0.000000
  H     -1.466347    1.467896   -0.000000
  H      1.859208   -0.920292    0.000000
  H      0.630397    3.226923    0.000000
  H      2.855922    1.628373   -0.000000

----------------------------
CARTESIAN COORDINATES (A.U.)
----------------------------
  NO LB      ZA    FRAG     MASS         X           Y           Z
   0 C     6.0000    0    12.011   -0.760162    2.482963   -0.000000
   1 O     8.0000    0    15.999    0.022431    0.031884   -0.000000
   2 C     6.0000    0    12.011    2.595004    0.072762    0.000000
   3 C     6.0000    0    12.011    1.252919    4.064346    0.000000
   4 C     6.0000    0    12.011    3.450783    2.486081   -0.000000
   5 H     1.0000    0     1.008   -2.770994    2.773922   -0.000000
   6 H     1.0000    0     1.008    3.513394   -1.739099    0.000001
   7 H     1.0000    0     1.008    1.191278    6.098000    0.000001
   8 H     1.0000    0     1.008    5.396911    3.077178   -0.000001

--------------------------------
INTERNAL COORDINATES (ANGSTROEM)
--------------------------------
 C      0   0   0     0.000000000000     0.00000000     0.00000000
 O      1   0   0     1.361563638185     0.00000000     0.00000000
 C      2   1   0     1.361519082240   106.79715719     0.00000000
 C      1   2   3     1.354659342841   110.44403131     0.00000000
 C      3   2   1     1.354989662907   110.43518996     0.00000000
 H      1   2   3     1.075167936673   115.94083391   180.00000999
 H      3   2   1     1.074930938541   115.96903032   179.99999421
 H      4   1   2     1.076657869730   126.41540548   180.00000382
 H      5   3   2     1.076301558956   126.41994685   180.00001688

---------------------------
INTERNAL COORDINATES (A.U.)
---------------------------
 C      0   0   0     0.000000000000     0.00000000     0.00000000
 O      1   0   0     2.572982390075     0.00000000     0.00000000
 C      2   1   0     2.572898191541   106.79715719     0.00000000
 C      1   2   3     2.559935162727   110.44403131     0.00000000
 C      3   2   1     2.560559377189   110.43518996     0.00000000
 H      1   2   3     2.031772948285   115.94083391   180.00000999
 H      3   2   1     2.031325086722   115.96903032   179.99999421
 H      4   1   2     2.034588513722   126.41540548   180.00000382
 H      5   3   2     2.033915183940   126.41994685   180.00001688

---------------------
BASIS SET INFORMATION
---------------------
There are 3 groups of distinct atoms

 Group   1 Type C   : 19s6p3d2f contracted to 5s4p3d2f pattern {88111/3111/111/11}
 Group   2 Type O   : 19s6p3d2f contracted to 5s4p3d2f pattern {88111/3111/111/11}
 Group   3 Type H   : 6s3p2d contracted to 4s3p2d pattern {3111/111/11}

Atom   0C    basis set group =>   1
Atom   1O    basis set group =>   2
Atom   2C    basis set group =>   1
Atom   3C    basis set group =>   1
Atom   4C    basis set group =>   1
Atom   5H    basis set group =>   3
Atom   6H    basis set group =>   3
Atom   7H    basis set group =>   3
Atom   8H    basis set group =>   3


           ************************************************************
           *        Program running with 16 parallel MPI-processes    *
           *              working on a common directory               *
           ************************************************************
------------------------------------------------------------------------------
                           ORCA GTO INTEGRAL CALCULATION
------------------------------------------------------------------------------

                         BASIS SET STATISTICS AND STARTUP INFO

 # of primitive gaussian shells          ...  194
 # of primitive gaussian functions       ...  430
 # of contracted shells                  ...  106
 # of contracted basis functions         ...  322
 Highest angular momentum                ...    3
 Maximum contraction depth               ...    8
 Integral package used                   ... LIBINT
 Integral threshhold            Thresh   ...  2.500e-11
 Primitive cut-off              TCut     ...  2.500e-12


------------------------------ INTEGRAL EVALUATION ----------------------------


 * One electron integrals 
 Pre-screening matrix                    ... done
 Shell pair data                         ... done (   0.001 sec)



           ************************************************************
           *        Program running with 16 parallel MPI-processes    *
           *              working on a common directory               *
           ************************************************************
-------------------------------------------------------------------------------
                                 ORCA SCF
-------------------------------------------------------------------------------

------------
SCF SETTINGS
------------
Hamiltonian:
 Ab initio Hamiltonian  Method          .... Hartree-Fock(GTOs)


General Settings:
 Integral files         IntName         .... furan_MP2_aug-cc-pVTZ_OPT
 Hartree-Fock type      HFTyp           .... RHF
 Total Charge           Charge          ....    0
 Multiplicity           Mult            ....    1
 Number of Electrons    NEL             ....   36
 Basis Dimension        Dim             ....  322
 Nuclear Repulsion      ENuc            ....    161.1988131991 Eh

Convergence Acceleration:
 DIIS                   CNVDIIS         .... on
   Start iteration      DIISMaxIt       ....    12
   Startup error        DIISStart       ....  0.200000
   # of expansion vecs  DIISMaxEq       ....     5
   Bias factor          DIISBfac        ....   1.050
   Max. coefficient     DIISMaxC        ....  10.000
 Newton-Raphson         CNVNR           .... off
 SOSCF                  CNVSOSCF        .... on
   Start iteration      SOSCFMaxIt      ....   150
   Startup grad/error   SOSCFStart      ....  0.003300
 Level Shifting         CNVShift        .... on
   Level shift para.    LevelShift      ....    0.2500
   Turn off err/grad.   ShiftErr        ....    0.0010
 Zerner damping         CNVZerner       .... off
 Static damping         CNVDamp         .... on
   Fraction old density DampFac         ....    0.7000
   Max. Damping (<1)    DampMax         ....    0.9800
   Min. Damping (>=0)   DampMin         ....    0.0000
   Turn off err/grad.   DampErr         ....    0.1000
 Fernandez-Rico         CNVRico         .... off

SCF Procedure:
 Maximum # iterations   MaxIter         ....   125
 SCF integral mode      SCFMode         .... Direct
   Integral package                     .... LIBINT
 Reset frequency        DirectResetFreq ....    20
 Integral Threshold     Thresh          ....  2.500e-11 Eh
 Primitive CutOff       TCut            ....  2.500e-12 Eh

Convergence Tolerance:
 Convergence Check Mode ConvCheckMode   .... Total+1el-Energy
 Convergence forced     ConvForced      .... 1
 Energy Change          TolE            ....  1.000e-08 Eh
 1-El. energy change                    ....  1.000e-05 Eh
 Orbital Gradient       TolG            ....  1.000e-05
 Orbital Rotation angle TolX            ....  1.000e-05
 DIIS Error             TolErr          ....  5.000e-07


Diagonalization of the overlap matrix:
Smallest eigenvalue                        ... 3.862e-06
Time for diagonalization                   ...    0.021 sec
Threshold for overlap eigenvalues          ... 1.000e-08
Number of eigenvalues below threshold      ... 0
Time for construction of square roots      ...    0.033 sec
Total time needed                          ...    0.054 sec

-------------------
DFT GRID GENERATION
-------------------

General Integration Accuracy     IntAcc      ...  4.340
Radial Grid Type                 RadialGrid  ... Gauss-Chebyshev
Angular Grid (max. acc.)         AngularGrid ... Lebedev-110
Angular grid pruning method      GridPruning ... 3 (G Style)
Weight generation scheme         WeightScheme... Becke
Basis function cutoff            BFCut       ...    1.0000e-11
Integration weight cutoff        WCut        ...    1.0000e-14
Grids for H and He will be reduced by one unit

# of grid points (after initial pruning)     ...  11516 (   0.0 sec)
# of grid points (after weights+screening)   ...  10949 (   0.0 sec)
nearest neighbour list constructed           ...    0.0 sec
Grid point re-assignment to atoms done       ...    0.0 sec
Grid point division into batches done        ...    0.0 sec
Reduced shell lists constructed in    0.0 sec

Total number of grid points                  ...    10949
Total number of batches                      ...      177
Average number of points per batch           ...       61
Average number of grid points per atom       ...     1217
Average number of shells per batch           ...    94.23 (88.90%)
Average number of basis functions per batch  ...   287.46 (89.27%)
Average number of large shells per batch     ...    88.08 (93.47%)
Average number of large basis fcns per batch ...   269.31 (93.68%)
Maximum spatial batch extension              ...   2.94,  3.26, 19.48 au
Average spatial batch extension              ...   0.13,  0.14,  0.33 au

Time for grid setup =    0.023 sec

------------------------------
INITIAL GUESS: MODEL POTENTIAL
------------------------------
Loading Hartree-Fock densities                     ... done
Calculating cut-offs                               ... done
Setting up the integral package                    ... done
Initializing the effective Hamiltonian             ... done
Starting the Coulomb interaction                   ... done (   0.0 sec)
Reading the grid                                   ... done
Mapping shells                                     ... done
Starting the XC term evaluation                    ... done (   0.0 sec)
Transforming the Hamiltonian                       ... done (   0.0 sec)
Diagonalizing the Hamiltonian                      ... done (   0.0 sec)
Back transforming the eigenvectors                 ... done (   0.0 sec)
Now organizing SCF variables                       ... done
                      ------------------
                      INITIAL GUESS DONE (   0.2 sec)
                      ------------------
--------------
SCF ITERATIONS
--------------
ITER       Energy         Delta-E        Max-DP      RMS-DP      [F,P]     Damp
               ***  Starting incremental Fock matrix formation  ***
  0   -228.5074171026   0.000000000000 0.04112643  0.00082860  0.2077479 0.7000
  1   -228.5759412642  -0.068524161596 0.02937307  0.00065637  0.1484903 0.7000
                               ***Turning on DIIS***
  2   -228.6187016605  -0.042760396354 0.02081225  0.00047858  0.1087662 0.7000
  3   -229.1091211794  -0.490419518891 0.05589473  0.00127122  0.0795329 0.0000
  4   -228.6721847974   0.436936382041 0.01010613  0.00021114  0.0069630 0.0000
                      *** Initiating the SOSCF procedure ***
                           *** Shutting down DIIS ***
                      *** Re-Reading the Fockian *** 
                      *** Removing any level shift *** 
ITER      Energy       Delta-E        Grad      Rot      Max-DP    RMS-DP
  5   -228.70251601  -0.0303312133  0.002951  0.002951  0.003647  0.000070
               *** Restarting incremental Fock matrix formation ***
  6   -228.70993309  -0.0074170769  0.001630  0.002916  0.001224  0.000020
  7   -228.70997111  -0.0000380244  0.000733  0.003317  0.001235  0.000026
  8   -228.70998610  -0.0000149845  0.000203  0.000203  0.000312  0.000005
  9   -228.70998745  -0.0000013489  0.000081  0.000156  0.000065  0.000002
 10   -228.70998758  -0.0000001307  0.000016  0.000032  0.000026  0.000001
 11   -228.70998759  -0.0000000180  0.000010  0.000015  0.000015  0.000000
                  ***Gradient check signals convergence***
              ***Rediagonalizing the Fockian in SOSCF/NRSCF***

               *****************************************************
               *                     SUCCESS                       *
               *           SCF CONVERGED AFTER  12 CYCLES          *
               *****************************************************


----------------
TOTAL SCF ENERGY
----------------

Total Energy       :         -228.70998760 Eh           -6223.51516 eV

Components:
Nuclear Repulsion  :          161.19881320 Eh            4386.44271 eV
Electronic Energy  :         -389.90880079 Eh          -10609.95787 eV
One Electron Energy:         -629.43656388 Eh          -17127.83967 eV
Two Electron Energy:          239.52776309 Eh            6517.88180 eV

Virial components:
Potential Energy   :         -457.05741751 Eh          -12437.16462 eV
Kinetic Energy     :          228.34742992 Eh            6213.64946 eV
Virial Ratio       :            2.00158775


---------------
SCF CONVERGENCE
---------------

  Last Energy change         ...   -1.7444e-09  Tolerance :   1.0000e-08
  Last MAX-Density change    ...    3.5642e-06  Tolerance :   1.0000e-07
  Last RMS-Density change    ...    7.2441e-08  Tolerance :   5.0000e-09
  Last Orbital Gradient      ...    1.1664e-06  Tolerance :   1.0000e-05
  Last Orbital Rotation      ...    1.9172e-06  Tolerance :   1.0000e-05

             **** THE GBW FILE WAS UPDATED (furan_MP2_aug-cc-pVTZ_OPT.gbw) ****
             **** DENSITY FILE WAS UPDATED (furan_MP2_aug-cc-pVTZ_OPT.scfp) ****
             **** ENERGY FILE WAS UPDATED (furan_MP2_aug-cc-pVTZ_OPT.en.tmp) ****
             **** THE GBW FILE WAS UPDATED (furan_MP2_aug-cc-pVTZ_OPT.gbw) ****
             **** DENSITY FILE WAS UPDATED (furan_MP2_aug-cc-pVTZ_OPT.scfp) ****
----------------
ORBITAL ENERGIES
----------------

  NO   OCC          E(Eh)            E(eV) 
   0   2.0000     -20.624096      -561.2102 
   1   2.0000     -11.287966      -307.1612 
   2   2.0000     -11.287913      -307.1597 
   3   2.0000     -11.231070      -305.6130 
   4   2.0000     -11.230087      -305.5862 
   5   2.0000      -1.458706       -39.6934 
   6   2.0000      -1.085683       -29.5429 
   7   2.0000      -1.005676       -27.3658 
   8   2.0000      -0.807539       -21.9743 
   9   2.0000      -0.782181       -21.2842 
  10   2.0000      -0.740482       -20.1495 
  11   2.0000      -0.634059       -17.2536 
  12   2.0000      -0.610151       -16.6031 
  13   2.0000      -0.577889       -15.7252 
  14   2.0000      -0.565323       -15.3832 
  15   2.0000      -0.541136       -14.7251 
  16   2.0000      -0.399231       -10.8636 
  17   2.0000      -0.321370        -8.7449 
  18   0.0000       0.029633         0.8064 
  19   0.0000       0.035233         0.9588 
  20   0.0000       0.038155         1.0383 
  21   0.0000       0.048827         1.3286 
  22   0.0000       0.081554         2.2192 
  23   0.0000       0.089861         2.4453 
  24   0.0000       0.102160         2.7799 
  25   0.0000       0.109821         2.9884 
  26   0.0000       0.111441         3.0325 
  27   0.0000       0.112975         3.0742 
  28   0.0000       0.116372         3.1666 
  29   0.0000       0.122552         3.3348 
  30   0.0000       0.128159         3.4874 
  31   0.0000       0.134489         3.6596 
  32   0.0000       0.135910         3.6983 
  33   0.0000       0.141634         3.8541 
  34   0.0000       0.151154         4.1131 
  35   0.0000       0.160569         4.3693 
  36   0.0000       0.208029         5.6608 
  37   0.0000       0.209396         5.6980 
  38   0.0000       0.224147         6.0994 
  39   0.0000       0.231418         6.2972 
  40   0.0000       0.243989         6.6393 
  41   0.0000       0.256938         6.9916 
  42   0.0000       0.258075         7.0226 
  43   0.0000       0.270591         7.3632 
  44   0.0000       0.273250         7.4355 
  45   0.0000       0.276821         7.5327 
  46   0.0000       0.296371         8.0647 
  47   0.0000       0.304374         8.2824 
  48   0.0000       0.313452         8.5295 
  49   0.0000       0.320140         8.7115 
  50   0.0000       0.330320         8.9885 
  51   0.0000       0.331434         9.0188 
  52   0.0000       0.339689         9.2434 
  53   0.0000       0.349091         9.4992 
  54   0.0000       0.383121        10.4252 
  55   0.0000       0.386862        10.5270 
  56   0.0000       0.392697        10.6858 
  57   0.0000       0.406530        11.0622 
  58   0.0000       0.414953        11.2915 
  59   0.0000       0.426642        11.6095 
  60   0.0000       0.429083        11.6759 
  61   0.0000       0.438010        11.9189 
  62   0.0000       0.446490        12.1496 
  63   0.0000       0.450647        12.2627 
  64   0.0000       0.468862        12.7584 
  65   0.0000       0.469509        12.7760 
  66   0.0000       0.479240        13.0408 
  67   0.0000       0.484178        13.1752 
  68   0.0000       0.491015        13.3612 
  69   0.0000       0.502716        13.6796 
  70   0.0000       0.508699        13.8424 
  71   0.0000       0.519631        14.1399 
  72   0.0000       0.519722        14.1424 
  73   0.0000       0.529257        14.4018 
  74   0.0000       0.561303        15.2738 
  75   0.0000       0.575928        15.6718 
  76   0.0000       0.578856        15.7515 
  77   0.0000       0.592838        16.1319 
  78   0.0000       0.626873        17.0581 
  79   0.0000       0.628590        17.1048 
  80   0.0000       0.643572        17.5125 
  81   0.0000       0.644522        17.5383 
  82   0.0000       0.657277        17.8854 
  83   0.0000       0.709653        19.3106 
  84   0.0000       0.716002        19.4834 
  85   0.0000       0.722830        19.6692 
  86   0.0000       0.733547        19.9608 
  87   0.0000       0.734487        19.9864 
  88   0.0000       0.735479        20.0134 
  89   0.0000       0.767433        20.8829 
  90   0.0000       0.776218        21.1220 
  91   0.0000       0.785325        21.3698 
  92   0.0000       0.829114        22.5613 
  93   0.0000       0.839323        22.8391 
  94   0.0000       0.863065        23.4852 
  95   0.0000       0.867829        23.6148 
  96   0.0000       0.870096        23.6765 
  97   0.0000       0.887600        24.1528 
  98   0.0000       0.897948        24.4344 
  99   0.0000       0.907055        24.6822 
 100   0.0000       0.911294        24.7976 
 101   0.0000       0.922728        25.1087 
 102   0.0000       0.948101        25.7991 
 103   0.0000       0.951321        25.8868 
 104   0.0000       0.952796        25.9269 
 105   0.0000       0.965602        26.2754 
 106   0.0000       0.968691        26.3594 
 107   0.0000       0.983183        26.7538 
 108   0.0000       0.999371        27.1943 
 109   0.0000       1.018246        27.7079 
 110   0.0000       1.026609        27.9355 
 111   0.0000       1.041825        28.3495 
 112   0.0000       1.043635        28.3987 
 113   0.0000       1.052788        28.6478 
 114   0.0000       1.064469        28.9657 
 115   0.0000       1.078052        29.3353 
 116   0.0000       1.084652        29.5149 
 117   0.0000       1.090309        29.6688 
 118   0.0000       1.094749        29.7896 
 119   0.0000       1.113840        30.3091 
 120   0.0000       1.133614        30.8472 
 121   0.0000       1.134655        30.8755 
 122   0.0000       1.143811        31.1247 
 123   0.0000       1.144622        31.1468 
 124   0.0000       1.163562        31.6621 
 125   0.0000       1.165247        31.7080 
 126   0.0000       1.172266        31.8990 
 127   0.0000       1.215698        33.0808 
 128   0.0000       1.225018        33.3344 
 129   0.0000       1.237106        33.6634 
 130   0.0000       1.268834        34.5267 
 131   0.0000       1.270439        34.5704 
 132   0.0000       1.277708        34.7682 
 133   0.0000       1.284339        34.9487 
 134   0.0000       1.316922        35.8353 
 135   0.0000       1.363715        37.1086 
 136   0.0000       1.368400        37.2361 
 137   0.0000       1.398932        38.0669 
 138   0.0000       1.446645        39.3652 
 139   0.0000       1.455855        39.6158 
 140   0.0000       1.459436        39.7133 
 141   0.0000       1.467537        39.9337 
 142   0.0000       1.482507        40.3411 
 143   0.0000       1.499391        40.8005 
 144   0.0000       1.533617        41.7319 
 145   0.0000       1.547709        42.1153 
 146   0.0000       1.578931        42.9649 
 147   0.0000       1.596416        43.4407 
 148   0.0000       1.628839        44.3229 
 149   0.0000       1.664489        45.2931 
 150   0.0000       1.683077        45.7988 
 151   0.0000       1.692140        46.0455 
 152   0.0000       1.692414        46.0529 
 153   0.0000       1.709268        46.5116 
 154   0.0000       1.728356        47.0310 
 155   0.0000       1.742572        47.4178 
 156   0.0000       1.750579        47.6357 
 157   0.0000       1.764030        48.0017 
 158   0.0000       1.795942        48.8701 
 159   0.0000       1.833234        49.8848 
 160   0.0000       1.852527        50.4098 
 161   0.0000       1.862928        50.6929 
 162   0.0000       1.886451        51.3329 
 163   0.0000       1.896225        51.5989 
 164   0.0000       1.900169        51.7062 
 165   0.0000       1.925717        52.4014 
 166   0.0000       1.953023        53.1445 
 167   0.0000       1.962844        53.4117 
 168   0.0000       1.971227        53.6398 
 169   0.0000       1.972568        53.6763 
 170   0.0000       1.984254        53.9943 
 171   0.0000       2.012915        54.7742 
 172   0.0000       2.043929        55.6181 
 173   0.0000       2.054996        55.9193 
 174   0.0000       2.080778        56.6208 
 175   0.0000       2.089920        56.8696 
 176   0.0000       2.140022        58.2330 
 177   0.0000       2.157952        58.7209 
 178   0.0000       2.233012        60.7633 
 179   0.0000       2.253321        61.3160 
 180   0.0000       2.270931        61.7952 
 181   0.0000       2.294040        62.4240 
 182   0.0000       2.337393        63.6037 
 183   0.0000       2.357789        64.1587 
 184   0.0000       2.367335        64.4185 
 185   0.0000       2.393090        65.1193 
 186   0.0000       2.412630        65.6510 
 187   0.0000       2.413383        65.6715 
 188   0.0000       2.498497        67.9876 
 189   0.0000       2.511121        68.3311 
 190   0.0000       2.539047        69.0910 
 191   0.0000       2.581618        70.2494 
 192   0.0000       2.586717        70.3881 
 193   0.0000       2.588248        70.4298 
 194   0.0000       2.663757        72.4845 
 195   0.0000       2.753002        74.9130 
 196   0.0000       2.810435        76.4758 
 197   0.0000       2.868249        78.0490 
 198   0.0000       2.869359        78.0792 
 199   0.0000       2.904067        79.0237 
 200   0.0000       2.992989        81.4434 
 201   0.0000       3.025924        82.3396 
 202   0.0000       3.080719        83.8306 
 203   0.0000       3.082210        83.8712 
 204   0.0000       3.136189        85.3400 
 205   0.0000       3.138218        85.3953 
 206   0.0000       3.164868        86.1204 
 207   0.0000       3.195591        86.9564 
 208   0.0000       3.227446        87.8233 
 209   0.0000       3.274459        89.1026 
 210   0.0000       3.313733        90.1713 
 211   0.0000       3.330318        90.6226 
 212   0.0000       3.362366        91.4946 
 213   0.0000       3.375538        91.8531 
 214   0.0000       3.377201        91.8983 
 215   0.0000       3.377642        91.9103 
 216   0.0000       3.415870        92.9506 
 217   0.0000       3.417321        92.9900 
 218   0.0000       3.433510        93.4305 
 219   0.0000       3.540783        96.3496 
 220   0.0000       3.547414        96.5300 
 221   0.0000       3.570975        97.1712 
 222   0.0000       3.574974        97.2800 
 223   0.0000       3.601056        97.9897 
 224   0.0000       3.601185        97.9932 
 225   0.0000       3.626420        98.6799 
 226   0.0000       3.645249        99.1923 
 227   0.0000       3.661076        99.6230 
 228   0.0000       3.679335       100.1198 
 229   0.0000       3.698419       100.6391 
 230   0.0000       3.741988       101.8247 
 231   0.0000       3.797713       103.3410 
 232   0.0000       3.807653       103.6115 
 233   0.0000       3.858052       104.9829 
 234   0.0000       3.867383       105.2368 
 235   0.0000       3.875661       105.4621 
 236   0.0000       3.877501       105.5122 
 237   0.0000       3.915073       106.5345 
 238   0.0000       3.945733       107.3689 
 239   0.0000       3.968200       107.9802 
 240   0.0000       4.027575       109.5959 
 241   0.0000       4.043360       110.0254 
 242   0.0000       4.050763       110.2269 
 243   0.0000       4.074809       110.8812 
 244   0.0000       4.087056       111.2144 
 245   0.0000       4.121269       112.1454 
 246   0.0000       4.124191       112.2250 
 247   0.0000       4.145006       112.7914 
 248   0.0000       4.190354       114.0253 
 249   0.0000       4.221841       114.8821 
 250   0.0000       4.225687       114.9868 
 251   0.0000       4.248045       115.5952 
 252   0.0000       4.280914       116.4896 
 253   0.0000       4.283982       116.5731 
 254   0.0000       4.298591       116.9706 
 255   0.0000       4.307675       117.2178 
 256   0.0000       4.322179       117.6125 
 257   0.0000       4.340774       118.1185 
 258   0.0000       4.421163       120.3060 
 259   0.0000       4.462358       121.4269 
 260   0.0000       4.484652       122.0336 
 261   0.0000       4.494340       122.2972 
 262   0.0000       4.517876       122.9377 
 263   0.0000       4.579238       124.6074 
 264   0.0000       4.600487       125.1856 
 265   0.0000       4.650883       126.5570 
 266   0.0000       4.702787       127.9693 
 267   0.0000       4.788956       130.3141 
 268   0.0000       4.810774       130.9078 
 269   0.0000       4.824419       131.2791 
 270   0.0000       4.831748       131.4785 
 271   0.0000       4.901713       133.3824 
 272   0.0000       4.903930       133.4427 
 273   0.0000       4.958655       134.9319 
 274   0.0000       4.977044       135.4322 
 275   0.0000       4.977587       135.4470 
 276   0.0000       5.039991       137.1451 
 277   0.0000       5.061338       137.7260 
 278   0.0000       5.103983       138.8864 
 279   0.0000       5.108558       139.0109 
 280   0.0000       5.127535       139.5273 
 281   0.0000       5.170772       140.7039 
 282   0.0000       5.200958       141.5253 
 283   0.0000       5.208316       141.7255 
 284   0.0000       5.335737       145.1928 
 285   0.0000       5.393769       146.7719 
 286   0.0000       5.463832       148.6784 
 287   0.0000       5.490081       149.3927 
 288   0.0000       5.490214       149.3963 
 289   0.0000       5.585120       151.9788 
 290   0.0000       5.775128       157.1492 
 291   0.0000       5.790528       157.5683 
 292   0.0000       5.832158       158.7011 
 293   0.0000       5.841275       158.9492 
 294   0.0000       5.922422       161.1573 
 295   0.0000       6.142062       167.1340 
 296   0.0000       6.268171       170.5656 
 297   0.0000       6.268562       170.5763 
 298   0.0000       6.402004       174.2074 
 299   0.0000       6.492905       176.6809 
 300   0.0000       6.578296       179.0045 
 301   0.0000       6.673142       181.5854 
 302   0.0000       6.695143       182.1841 
 303   0.0000       6.749783       183.6709 
 304   0.0000       6.839993       186.1257 
 305   0.0000       6.978470       189.8938 
 306   0.0000       7.000027       190.4804 
 307   0.0000       7.041715       191.6148 
 308   0.0000       7.259222       197.5335 
 309   0.0000       7.369887       200.5448 
 310   0.0000       7.453982       202.8332 
 311   0.0000       7.573792       206.0934 
 312   0.0000       7.695859       209.4150 
 313   0.0000       7.722231       210.1326 
 314   0.0000       7.843719       213.4384 
 315   0.0000       8.306615       226.0345 
 316   0.0000       8.379896       228.0286 
 317   0.0000      14.400949       391.8697 
 318   0.0000      16.929268       460.6688 
 319   0.0000      17.634882       479.8695 
 320   0.0000      18.121481       493.1106 
 321   0.0000      18.919073       514.8142 

                    ********************************
                    * MULLIKEN POPULATION ANALYSIS *
                    ********************************

-----------------------
MULLIKEN ATOMIC CHARGES
-----------------------
   0 C :   -0.514360
   1 O :   -0.291911
   2 C :   -0.514924
   3 C :   -0.538564
   4 C :   -0.539551
   5 H :    0.717703
   6 H :    0.717840
   7 H :    0.481655
   8 H :    0.482113
Sum of atomic charges:    0.0000000

--------------------------------
MULLIKEN REDUCED ORBITAL CHARGES
--------------------------------
  0 C s       :     3.688853  s :     3.688853
      pz      :     0.967021  p :     2.703988
      px      :     1.114085
      py      :     0.622881
      dz2     :     0.001088  d :     0.083722
      dxz     :    -0.000322
      dyz     :     0.052095
      dx2y2   :     0.017773
      dxy     :     0.013087
      f0      :     0.003231  f :     0.037798
      f+1     :     0.000605
      f-1     :     0.001202
      f+2     :     0.004751
      f-2     :     0.005323
      f+3     :     0.006366
      f-3     :     0.016319
  1 O s       :     3.862143  s :     3.862143
      pz      :     1.692681  p :     4.352277
      px      :     1.289123
      py      :     1.370473
      dz2     :    -0.004118  d :     0.069233
      dxz     :     0.022711
      dyz     :     0.016449
      dx2y2   :     0.022415
      dxy     :     0.011775
      f0      :     0.001239  f :     0.008259
      f+1     :     0.000186
      f-1     :    -0.000002
      f+2     :     0.002285
      f-2     :     0.000469
      f+3     :     0.001948
      f-3     :     0.002134
  2 C s       :     3.689089  s :     3.689089
      pz      :     0.966977  p :     2.704312
      px      :     0.643423
      py      :     1.093913
      dz2     :     0.001083  d :     0.083690
      dxz     :     0.040427
      dyz     :     0.011330
      dx2y2   :     0.018401
      dxy     :     0.012449
      f0      :     0.003230  f :     0.037833
      f+1     :     0.001060
      f-1     :     0.000748
      f+2     :     0.010177
      f-2     :    -0.000096
      f+3     :     0.000867
      f-3     :     0.021846
  3 C s       :     3.223077  s :     3.223077
      pz      :     1.028312  p :     3.198578
      px      :     1.064217
      py      :     1.106049
      dz2     :     0.006249  d :     0.126872
      dxz     :     0.020597
      dyz     :     0.018964
      dx2y2   :     0.067376
      dxy     :     0.013686
      f0      :     0.001993  f :    -0.009963
      f+1     :     0.000846
      f-1     :     0.001030
      f+2     :    -0.000632
      f-2     :     0.002769
      f+3     :    -0.017722
      f-3     :     0.001754
  4 C s       :     3.223872  s :     3.223872
      pz      :     1.028382  p :     3.198684
      px      :     1.139544
      py      :     1.030759
      dz2     :     0.006245  d :     0.126966
      dxz     :     0.014211
      dyz     :     0.025328
      dx2y2   :     0.097484
      dxy     :    -0.016302
      f0      :     0.001994  f :    -0.009972
      f+1     :     0.000716
      f-1     :     0.001158
      f+2     :     0.001088
      f-2     :     0.001050
      f+3     :    -0.017735
      f-3     :     0.001757
  5 H s       :     0.298728  s :     0.298728
      pz      :     0.003851  p :    -0.015323
      px      :    -0.008469
      py      :    -0.010704
      dz2     :    -0.001843  d :    -0.001108
      dxz     :     0.001500
      dyz     :     0.000711
      dx2y2   :    -0.000065
      dxy     :    -0.001410
  6 H s       :     0.298572  s :     0.298572
      pz      :     0.003841  p :    -0.015307
      px      :    -0.013840
      py      :    -0.005308
      dz2     :    -0.001842  d :    -0.001105
      dxz     :     0.001250
      dyz     :     0.000961
      dx2y2   :    -0.001763
      dxy     :     0.000288
  7 H s       :     0.479245  s :     0.479245
      pz      :     0.018896  p :     0.038901
      px      :     0.011545
      py      :     0.008460
      dz2     :    -0.002710  d :     0.000199
      dxz     :    -0.000006
      dyz     :     0.003040
      dx2y2   :    -0.001156
      dxy     :     0.001033
  8 H s       :     0.478850  s :     0.478850
      pz      :     0.018891  p :     0.038841
      px      :     0.009810
      py      :     0.010140
      dz2     :    -0.002710  d :     0.000196
      dxz     :     0.002625
      dyz     :     0.000406
      dx2y2   :    -0.000201
      dxy     :     0.000076


                     *******************************
                     * LOEWDIN POPULATION ANALYSIS *
                     *******************************

----------------------
LOEWDIN ATOMIC CHARGES
----------------------
   0 C :   -0.039247
   1 O :    0.545674
   2 C :   -0.038948
   3 C :    0.159401
   4 C :    0.159722
   5 H :   -0.195210
   6 H :   -0.195451
   7 H :   -0.197783
   8 H :   -0.198159

-------------------------------
LOEWDIN REDUCED ORBITAL CHARGES
-------------------------------
  0 C s       :     2.500652  s :     2.500652
      pz      :     0.622813  p :     2.207403
      px      :     0.887880
      py      :     0.696710
      dz2     :     0.078999  d :     0.849317
      dxz     :     0.067893
      dyz     :     0.172755
      dx2y2   :     0.313495
      dxy     :     0.216174
      f0      :     0.034741  f :     0.481875
      f+1     :     0.026354
      f-1     :     0.039197
      f+2     :     0.055809
      f-2     :     0.057298
      f+3     :     0.137755
      f-3     :     0.130721
  1 O s       :     2.990917  s :     2.990917
      pz      :     1.310915  p :     3.846925
      px      :     1.233972
      py      :     1.302037
      dz2     :     0.045346  d :     0.478375
      dxz     :     0.085596
      dyz     :     0.064431
      dx2y2   :     0.124625
      dxy     :     0.158377
      f0      :     0.007685  f :     0.138109
      f+1     :     0.009060
      f-1     :     0.008124
      f+2     :     0.031837
      f-2     :     0.003885
      f+3     :     0.027058
      f-3     :     0.050460
  2 C s       :     2.500640  s :     2.500640
      pz      :     0.622728  p :     2.207308
      px      :     0.676483
      py      :     0.908096
      dz2     :     0.078987  d :     0.849187
      dxz     :     0.151058
      dyz     :     0.089558
      dx2y2   :     0.245735
      dxy     :     0.283849
      f0      :     0.034738  f :     0.481813
      f+1     :     0.038471
      f-1     :     0.027071
      f+2     :     0.096176
      f-2     :     0.016927
      f+3     :     0.105092
      f-3     :     0.163338
  3 C s       :     2.501281  s :     2.501281
      pz      :     0.632883  p :     2.312785
      px      :     0.822890
      py      :     0.857012
      dz2     :     0.068460  d :     0.683998
      dxz     :     0.130620
      dyz     :     0.050534
      dx2y2   :     0.256693
      dxy     :     0.177692
      f0      :     0.020614  f :     0.342535
      f+1     :     0.026924
      f-1     :     0.025227
      f+2     :     0.010108
      f-2     :     0.073780
      f+3     :     0.116046
      f-3     :     0.069836
  4 C s       :     2.501269  s :     2.501269
      pz      :     0.632854  p :     2.312679
      px      :     0.845136
      py      :     0.834689
      dz2     :     0.068450  d :     0.683855
      dxz     :     0.068634
      dyz     :     0.112452
      dx2y2   :     0.245696
      dxy     :     0.188622
      f0      :     0.020611  f :     0.342474
      f+1     :     0.024563
      f-1     :     0.027580
      f+2     :     0.036513
      f-2     :     0.047365
      f+3     :     0.095817
      f-3     :     0.090026
  5 H s       :     0.706974  s :     0.706974
      pz      :     0.090351  p :     0.287143
      px      :     0.137982
      py      :     0.058811
      dz2     :     0.022362  d :     0.201092
      dxz     :     0.061902
      dyz     :     0.006685
      dx2y2   :     0.048451
      dxy     :     0.061692
  6 H s       :     0.707046  s :     0.707046
      pz      :     0.090409  p :     0.287266
      px      :     0.071576
      py      :     0.125281
      dz2     :     0.022368  d :     0.201138
      dxz     :     0.014232
      dyz     :     0.054369
      dx2y2   :     0.065451
      dxy     :     0.044718
  7 H s       :     0.694121  s :     0.694121
      pz      :     0.091994  p :     0.297600
      px      :     0.066527
      py      :     0.139079
      dz2     :     0.020537  d :     0.206062
      dxz     :     0.003920
      dyz     :     0.063149
      dx2y2   :     0.042849
      dxy     :     0.075607
  8 H s       :     0.694213  s :     0.694213
      pz      :     0.092082  p :     0.297797
      px      :     0.133411
      py      :     0.072305
      dz2     :     0.020546  d :     0.206149
      dxz     :     0.054270
      dyz     :     0.012825
      dx2y2   :     0.052164
      dxy     :     0.066343


                      *****************************
                      * MAYER POPULATION ANALYSIS *
                      *****************************

  NA   - Mulliken gross atomic population
  ZA   - Total nuclear charge
  QA   - Mulliken gross atomic charge
  VA   - Mayer's total valence
  BVA  - Mayer's bonded valence
  FA   - Mayer's free valence

  ATOM       NA         ZA         QA         VA         BVA        FA
  0 C      6.5144     6.0000    -0.5144     2.9154     2.9154     0.0000
  1 O      8.2919     8.0000    -0.2919     1.8524     1.8524     0.0000
  2 C      6.5149     6.0000    -0.5149     2.9154     2.9154     0.0000
  3 C      6.5386     6.0000    -0.5386     3.2556     3.2556    -0.0000
  4 C      6.5396     6.0000    -0.5396     3.2557     3.2557     0.0000
  5 H      0.2823     1.0000     0.7177     0.4003     0.4003    -0.0000
  6 H      0.2822     1.0000     0.7178     0.4002     0.4002     0.0000
  7 H      0.5183     1.0000     0.4817     0.8428     0.8428    -0.0000
  8 H      0.5179     1.0000     0.4821     0.8420     0.8420     0.0000

  Mayer bond orders larger than 0.100000
B(  0-C ,  1-O ) :   1.0326 B(  0-C ,  3-C ) :   1.3350 B(  0-C ,  5-H ) :   0.4360 
B(  1-O ,  2-C ) :   1.0328 B(  2-C ,  4-C ) :   1.3354 B(  2-C ,  6-H ) :   0.4357 
B(  3-C ,  4-C ) :   1.1749 B(  3-C ,  7-H ) :   0.8654 B(  4-C ,  8-H ) :   0.8647 


-------
TIMINGS
-------

Total SCF time: 0 days 0 hours 0 min 34 sec 

Total time                  ....      34.503 sec
Sum of individual times     ....      34.132 sec  ( 98.9%)

Fock matrix formation       ....      33.094 sec  ( 95.9%)
Diagonalization             ....       0.239 sec  (  0.7%)
Density matrix formation    ....       0.116 sec  (  0.3%)
Population analysis         ....       0.034 sec  (  0.1%)
Initial guess               ....       0.180 sec  (  0.5%)
Orbital Transformation      ....       0.000 sec  (  0.0%)
Orbital Orthonormalization  ....       0.000 sec  (  0.0%)
DIIS solution               ....       0.122 sec  (  0.4%)
SOSCF solution              ....       0.324 sec  (  0.9%)


           ************************************************************
           *        Program running with 16 parallel MPI-processes    *
           *              working on a common directory               *
           ************************************************************

------------------------------------------------------------------------------
                                ORCA  MP2 
------------------------------------------------------------------------------

Freezing NCore=10 chemical core electrons
MP2 will be done in the AO integral direct mode
The Q1-step will be done using symmetric double matrices
Dimension of the basis                    ...  322
Memory devoted for MP2                    ... 1000 MB   
Memory needed for all in one shot         ...  129 MB
Number of MOs that can be treated together...    6      
MP2 density construction                  ... relaxed
The MP2 gradient is requested => amplitudes will be stored on disk
Total number of MOs              ...   13
Number of MOs treated per batch  ...    1 
Number of batches necessary      ...    1 
OPERATORS   0/  0 PASS   0
-----------------------------------------------
 MP2 CORRELATION ENERGY   :     -0.882560301 Eh
-----------------------------------------------


---------------------
MP2 DENSITY FORMATION
---------------------

Completing the external part of the density      ... done
Storing the unrelaxed density                    ... done

Calculating G(D)                                 ... done
Completing the Lagrangian                        ... done
Solving the Z-vector equations                   ... 

------------------------------------------------------------------------------
                           ORCA CP-SCF CALCULATION
------------------------------------------------------------------------------

Input orbitals are from        ... furan_MP2_aug-cc-pVTZ_OPT.gbw
Input Perturbation             ... furan_MP2_aug-cc-pVTZ_OPT.pin.tmp
Wavefunction output            ... furan_MP2_aug-cc-pVTZ_OPT.pout.tmp
Perturbation mode              ... Real perturbation (singlet)
Solver                         ... POPLE
Max. number of iterations      ... 128
Convergence tolerance          ... 1.000e-08
Integral handling              ... Direct
Number of perturbations        ... 1
Number of operators            ... 1
Orbital ranges used for CP-SCF:
 Operator 0:  Orbitals   0... 17  to  18...321
Variables per vector in CP-SCF ... 5472
Number of vectors sought       ... 1
     CP-SCF ITERATION   0: 
     CP-SCF ITERATION   1:      0.002507542028
     CP-SCF ITERATION   2:      0.000557795524
     CP-SCF ITERATION   3:      0.000057873047
     CP-SCF ITERATION   4:      0.000003386740
     CP-SCF ITERATION   5:      0.000000221672
     CP-SCF ITERATION   6:      0.000000021997
     CP-SCF ITERATION   7:      0.000000000816
                                                 ... done
Finalizing the relaxed density                   ... done
Transforming P to the AO basis                   ... done
Storing the relaxed density                      ... done

------------------------------------
ENERGY WEIGHTED DENSITY FINALIZATION
------------------------------------

Gathering the parts of the W-matrix              ...                                                      done
Forming the Z-density                            ... done
Transforming Z to the AO basis                   ... done
Calculating G(Z)                                 ... done
Finalizing the W-matrix                          ...                                                      done
Transforming W to the AO basis and storing       ... done

                *********************************************
                * UNRELAXED MP2 DENSITY POPULATION ANALYSIS *
                *********************************************

------------------------------------------------------------------------------
                           ORCA POPULATION ANALYSIS
------------------------------------------------------------------------------
Input electron density              ... furan_MP2_aug-cc-pVTZ_OPT.pmp2ur
BaseName (.gbw .S,...)              ... furan_MP2_aug-cc-pVTZ_OPT

                    ********************************
                    * MULLIKEN POPULATION ANALYSIS *
                    ********************************

-----------------------
MULLIKEN ATOMIC CHARGES
-----------------------
   0 C :   -0.509882
   1 O :   -0.275955
   2 C :   -0.510438
   3 C :   -0.531484
   4 C :   -0.532454
   5 H :    0.707650
   6 H :    0.707787
   7 H :    0.472162
   8 H :    0.472613
Sum of atomic charges:    0.0000000

--------------------------------
MULLIKEN REDUCED ORBITAL CHARGES
--------------------------------
  0 C s       :     3.677072  s :     3.677072
      pz      :     0.963409  p :     2.690955
      px      :     1.101542
      py      :     0.626004
      dz2     :     0.006527  d :     0.101590
      dxz     :     0.003925
      dyz     :     0.055565
      dx2y2   :     0.019826
      dxy     :     0.015748
      f0      :     0.003447  f :     0.040265
      f+1     :     0.001007
      f-1     :     0.001657
      f+2     :     0.005235
      f-2     :     0.005608
      f+3     :     0.006405
      f-3     :     0.016905
  1 O s       :     3.860065  s :     3.860065
      pz      :     1.672409  p :     4.302061
      px      :     1.275026
      py      :     1.354626
      dz2     :     0.001907  d :     0.101103
      dxz     :     0.029047
      dyz     :     0.022804
      dx2y2   :     0.028594
      dxy     :     0.018751
      f0      :     0.001684  f :     0.012726
      f+1     :     0.000782
      f-1     :     0.000587
      f+2     :     0.002938
      f-2     :     0.001172
      f+3     :     0.002723
      f-3     :     0.002839
  2 C s       :     3.677305  s :     3.677305
      pz      :     0.963372  p :     2.691275
      px      :     0.646819
      py      :     1.081084
      dz2     :     0.006522  d :     0.101559
      dxz     :     0.044239
      dyz     :     0.015235
      dx2y2   :     0.020599
      dxy     :     0.014963
      f0      :     0.003446  f :     0.040299
      f+1     :     0.001419
      f-1     :     0.001247
      f+2     :     0.010380
      f-2     :     0.000470
      f+3     :     0.001258
      f-3     :     0.022079
  3 C s       :     3.221310  s :     3.221310
      pz      :     1.020285  p :     3.167631
      px      :     1.052365
      py      :     1.094981
      dz2     :     0.011881  d :     0.148658
      dxz     :     0.026098
      dyz     :     0.023564
      dx2y2   :     0.071105
      dxy     :     0.016011
      f0      :     0.002143  f :    -0.006115
      f+1     :     0.001429
      f-1     :     0.001562
      f+2     :     0.000004
      f-2     :     0.003060
      f+3     :    -0.016734
      f-3     :     0.002422
  4 C s       :     3.222090  s :     3.222090
      pz      :     1.020348  p :     3.167732
      px      :     1.127467
      py      :     1.019917
      dz2     :     0.011879  d :     0.148755
      dxz     :     0.019242
      dyz     :     0.030400
      dx2y2   :     0.098587
      dxy     :    -0.011353
      f0      :     0.002143  f :    -0.006123
      f+1     :     0.001236
      f-1     :     0.001753
      f+2     :     0.001512
      f-2     :     0.001553
      f+3     :    -0.016780
      f-3     :     0.002458
  5 H s       :     0.305034  s :     0.305034
      pz      :     0.005468  p :    -0.012356
      px      :    -0.009354
      py      :    -0.008471
      dz2     :    -0.001696  d :    -0.000328
      dxz     :     0.001577
      dyz     :     0.000796
      dx2y2   :     0.000098
      dxy     :    -0.001102
  6 H s       :     0.304878  s :     0.304878
      pz      :     0.005459  p :    -0.012339
      px      :    -0.012378
      py      :    -0.005420
      dz2     :    -0.001695  d :    -0.000325
      dxz     :     0.001298
      dyz     :     0.001075
      dx2y2   :    -0.001444
      dxy     :     0.000441
  7 H s       :     0.485129  s :     0.485129
      pz      :     0.021061  p :     0.041842
      px      :     0.013824
      py      :     0.006956
      dz2     :    -0.002618  d :     0.000868
      dxz     :     0.000124
      dyz     :     0.003057
      dx2y2   :    -0.000940
      dxy     :     0.001245
  8 H s       :     0.484735  s :     0.484735
      pz      :     0.021057  p :     0.041787
      px      :     0.008541
      py      :     0.012188
      dz2     :    -0.002619  d :     0.000865
      dxz     :     0.002645
      dyz     :     0.000533
      dx2y2   :     0.000002
      dxy     :     0.000303


                     *******************************
                     * LOEWDIN POPULATION ANALYSIS *
                     *******************************

----------------------
LOEWDIN ATOMIC CHARGES
----------------------
   0 C :   -0.041097
   1 O :    0.551976
   2 C :   -0.040806
   3 C :    0.155097
   4 C :    0.155412
   5 H :   -0.194396
   6 H :   -0.194634
   7 H :   -0.195590
   8 H :   -0.195962

-------------------------------
LOEWDIN REDUCED ORBITAL CHARGES
-------------------------------
  0 C s       :     2.498899  s :     2.498899
      pz      :     0.622808  p :     2.197734
      px      :     0.880360
      py      :     0.694567
      dz2     :     0.084044  d :     0.860753
      dxz     :     0.071553
      dyz     :     0.173091
      dx2y2   :     0.314056
      dxy     :     0.218008
      f0      :     0.035735  f :     0.483711
      f+1     :     0.027183
      f-1     :     0.040092
      f+2     :     0.055414
      f-2     :     0.056845
      f+3     :     0.137606
      f-3     :     0.130836
  1 O s       :     2.989414  s :     2.989414
      pz      :     1.297226  p :     3.809326
      px      :     1.222541
      py      :     1.289559
      dz2     :     0.051710  d :     0.504968
      dxz     :     0.089983
      dyz     :     0.069517
      dx2y2   :     0.131101
      dxy     :     0.162657
      f0      :     0.009097  f :     0.144317
      f+1     :     0.009997
      f-1     :     0.008994
      f+2     :     0.031860
      f-2     :     0.004859
      f+3     :     0.028478
      f-3     :     0.051032
  2 C s       :     2.498888  s :     2.498888
      pz      :     0.622730  p :     2.197645
      px      :     0.675008
      py      :     0.899907
      dz2     :     0.084033  d :     0.860624
      dxz     :     0.151952
      dyz     :     0.092660
      dx2y2   :     0.247714
      dxy     :     0.284265
      f0      :     0.035732  f :     0.483649
      f+1     :     0.039254
      f-1     :     0.028011
      f+2     :     0.094330
      f-2     :     0.017926
      f+3     :     0.106707
      f-3     :     0.161689
  3 C s       :     2.499184  s :     2.499184
      pz      :     0.629212  p :     2.293727
      px      :     0.815127
      py      :     0.849389
      dz2     :     0.074028  d :     0.703709
      dxz     :     0.133518
      dyz     :     0.055122
      dx2y2   :     0.259079
      dxy     :     0.181963
      f0      :     0.021888  f :     0.348283
      f+1     :     0.028013
      f-1     :     0.026059
      f+2     :     0.011337
      f-2     :     0.073108
      f+3     :     0.115967
      f-3     :     0.071911
  4 C s       :     2.499173  s :     2.499173
      pz      :     0.629184  p :     2.293625
      px      :     0.837563
      py      :     0.826878
      dz2     :     0.074019  d :     0.703568
      dxz     :     0.072224
      dyz     :     0.116350
      dx2y2   :     0.248195
      dxy     :     0.192780
      f0      :     0.021885  f :     0.348222
      f+1     :     0.025437
      f-1     :     0.028627
      f+2     :     0.036669
      f-2     :     0.047766
      f+3     :     0.096617
      f-3     :     0.091220
  5 H s       :     0.700558  s :     0.700558
      pz      :     0.091147  p :     0.292389
      px      :     0.140663
      py      :     0.060579
      dz2     :     0.022634  d :     0.201448
      dxz     :     0.061422
      dyz     :     0.006978
      dx2y2   :     0.048913
      dxy     :     0.061502
  6 H s       :     0.700629  s :     0.700629
      pz      :     0.091205  p :     0.292511
      px      :     0.073634
      py      :     0.127672
      dz2     :     0.022639  d :     0.201494
      dxz     :     0.014644
      dyz     :     0.053770
      dx2y2   :     0.065247
      dxy     :     0.045194
  7 H s       :     0.687681  s :     0.687681
      pz      :     0.092415  p :     0.302256
      px      :     0.067965
      py      :     0.141876
      dz2     :     0.020857  d :     0.205652
      dxz     :     0.004285
      dyz     :     0.062315
      dx2y2   :     0.043426
      dxy     :     0.074770
  8 H s       :     0.687773  s :     0.687773
      pz      :     0.092501  p :     0.302451
      px      :     0.136087
      py      :     0.073864
      dz2     :     0.020866  d :     0.205738
      dxz     :     0.053825
      dyz     :     0.012801
      dx2y2   :     0.052301
      dxy     :     0.065945


                      *****************************
                      * MAYER POPULATION ANALYSIS *
                      *****************************

  NA   - Mulliken gross atomic population
  ZA   - Total nuclear charge
  QA   - Mulliken gross atomic charge
  VA   - Mayer's total valence
  BVA  - Mayer's bonded valence
  FA   - Mayer's free valence

  ATOM       NA         ZA         QA         VA         BVA        FA
  0 C      6.5099     6.0000    -0.5099     3.0206     2.6562     0.3644
  1 O      8.2760     8.0000    -0.2760     2.1440     1.6793     0.4648
  2 C      6.5104     6.0000    -0.5104     3.0207     2.6562     0.3645
  3 C      6.5315     6.0000    -0.5315     3.3763     2.9949     0.3814
  4 C      6.5325     6.0000    -0.5325     3.3764     2.9950     0.3815
  5 H      0.2923     1.0000     0.7077     0.4149     0.3708     0.0441
  6 H      0.2922     1.0000     0.7078     0.4148     0.3707     0.0441
  7 H      0.5278     1.0000     0.4722     0.8535     0.7988     0.0548
  8 H      0.5274     1.0000     0.4726     0.8528     0.7981     0.0547

  Mayer bond orders larger than 0.100000
B(  0-C ,  1-O ) :   0.9540 B(  0-C ,  3-C ) :   1.2067 B(  0-C ,  5-H ) :   0.4104 
B(  1-O ,  2-C ) :   0.9542 B(  2-C ,  4-C ) :   1.2071 B(  2-C ,  6-H ) :   0.4102 
B(  3-C ,  4-C ) :   1.0930 B(  3-C ,  7-H ) :   0.8241 B(  4-C ,  8-H ) :   0.8235 



                *******************************************
                * RELAXED MP2 DENSITY POPULATION ANALYSIS *
                *******************************************

------------------------------------------------------------------------------
                           ORCA POPULATION ANALYSIS
------------------------------------------------------------------------------
Input electron density              ... furan_MP2_aug-cc-pVTZ_OPT.pmp2re
BaseName (.gbw .S,...)              ... furan_MP2_aug-cc-pVTZ_OPT

                    ********************************
                    * MULLIKEN POPULATION ANALYSIS *
                    ********************************

-----------------------
MULLIKEN ATOMIC CHARGES
-----------------------
   0 C :   -0.551637
   1 O :   -0.190955
   2 C :   -0.552175
   3 C :   -0.525562
   4 C :   -0.526506
   5 H :    0.696986
   6 H :    0.697114
   7 H :    0.476150
   8 H :    0.476585
Sum of atomic charges:    0.0000000

--------------------------------
MULLIKEN REDUCED ORBITAL CHARGES
--------------------------------
  0 C s       :     3.677554  s :     3.677554
      pz      :     1.012140  p :     2.740211
      px      :     1.099800
      py      :     0.628271
      dz2     :     0.006611  d :     0.099004
      dxz     :     0.007757
      dyz     :     0.051346
      dx2y2   :     0.022718
      dxy     :     0.010572
      f0      :     0.003495  f :     0.034868
      f+1     :     0.001193
      f-1     :     0.001583
      f+2     :     0.004099
      f-2     :     0.004769
      f+3     :     0.005132
      f-3     :     0.014597
  1 O s       :     3.856679  s :     3.856679
      pz      :     1.597468  p :     4.214336
      px      :     1.271241
      py      :     1.345627
      dz2     :     0.001873  d :     0.106666
      dxz     :     0.031638
      dyz     :     0.024699
      dx2y2   :     0.028218
      dxy     :     0.020238
      f0      :     0.001718  f :     0.013275
      f+1     :     0.000750
      f-1     :     0.000562
      f+2     :     0.003107
      f-2     :     0.001229
      f+3     :     0.002832
      f-3     :     0.003077
  2 C s       :     3.677745  s :     3.677745
      pz      :     1.012171  p :     2.740557
      px      :     0.652128
      py      :     1.076258
      dz2     :     0.006606  d :     0.098974
      dxz     :     0.044045
      dyz     :     0.015044
      dx2y2   :     0.018681
      dxy     :     0.014598
      f0      :     0.003495  f :     0.034899
      f+1     :     0.001406
      f-1     :     0.001370
      f+2     :     0.008356
      f-2     :     0.000518
      f+3     :     0.000254
      f-3     :     0.019500
  3 C s       :     3.220593  s :     3.220593
      pz      :     1.021728  p :     3.175945
      px      :     1.058940
      py      :     1.095277
      dz2     :     0.011649  d :     0.139024
      dxz     :     0.020048
      dyz     :     0.022515
      dx2y2   :     0.068532
      dxy     :     0.016279
      f0      :     0.002131  f :    -0.010000
      f+1     :     0.001395
      f-1     :     0.001914
      f+2     :     0.000027
      f-2     :     0.001061
      f+3     :    -0.018351
      f-3     :     0.001822
  4 C s       :     3.221365  s :     3.221365
      pz      :     1.021756  p :     3.176018
      px      :     1.128897
      py      :     1.025365
      dz2     :     0.011650  d :     0.139131
      dxz     :     0.020166
      dyz     :     0.022383
      dx2y2   :     0.098529
      dxy     :    -0.013597
      f0      :     0.002132  f :    -0.010009
      f+1     :     0.001539
      f-1     :     0.001769
      f+2     :     0.000634
      f-2     :     0.000455
      f+3     :    -0.017912
      f-3     :     0.001374
  5 H s       :     0.317837  s :     0.317837
      pz      :     0.005948  p :    -0.012977
      px      :    -0.010271
      py      :    -0.008654
      dz2     :    -0.001814  d :    -0.001846
      dxz     :     0.000733
      dyz     :     0.000682
      dx2y2   :    -0.000154
      dxy     :    -0.001293
  6 H s       :     0.317691  s :     0.317691
      pz      :     0.005938  p :    -0.012959
      px      :    -0.011971
      py      :    -0.006926
      dz2     :    -0.001813  d :    -0.001846
      dxz     :     0.001110
      dyz     :     0.000304
      dx2y2   :    -0.001854
      dxy     :     0.000407
  7 H s       :     0.486120  s :     0.486120
      pz      :     0.019034  p :     0.038584
      px      :     0.013592
      py      :     0.005958
      dz2     :    -0.002665  d :    -0.000854
      dxz     :    -0.000014
      dyz     :     0.002009
      dx2y2   :    -0.001002
      dxy     :     0.000818
  8 H s       :     0.485749  s :     0.485749
      pz      :     0.019023  p :     0.038524
      px      :     0.007942
      py      :     0.011559
      dz2     :    -0.002665  d :    -0.000859
      dxz     :     0.001782
      dyz     :     0.000210
      dx2y2   :    -0.000098
      dxy     :    -0.000087


                     *******************************
                     * LOEWDIN POPULATION ANALYSIS *
                     *******************************

----------------------
LOEWDIN ATOMIC CHARGES
----------------------
   0 C :   -0.052916
   1 O :    0.582496
   2 C :   -0.052638
   3 C :    0.149020
   4 C :    0.149330
   5 H :   -0.195959
   6 H :   -0.196202
   7 H :   -0.191380
   8 H :   -0.191750

-------------------------------
LOEWDIN REDUCED ORBITAL CHARGES
-------------------------------
  0 C s       :     2.504301  s :     2.504301
      pz      :     0.651282  p :     2.224305
      px      :     0.878393
      py      :     0.694630
      dz2     :     0.083883  d :     0.849973
      dxz     :     0.071691
      dyz     :     0.163620
      dx2y2   :     0.314481
      dxy     :     0.216298
      f0      :     0.033094  f :     0.474337
      f+1     :     0.026774
      f-1     :     0.039905
      f+2     :     0.051686
      f-2     :     0.057077
      f+3     :     0.136613
      f-3     :     0.129189
  1 O s       :     2.999230  s :     2.999230
      pz      :     1.249093  p :     3.756804
      px      :     1.223477
      py      :     1.284234
      dz2     :     0.051604  d :     0.514081
      dxz     :     0.094486
      dyz     :     0.071078
      dx2y2   :     0.131706
      dxy     :     0.165208
      f0      :     0.009017  f :     0.147389
      f+1     :     0.009963
      f-1     :     0.008962
      f+2     :     0.033855
      f-2     :     0.005219
      f+3     :     0.028988
      f-3     :     0.051385
  2 C s       :     2.504288  s :     2.504288
      pz      :     0.651248  p :     2.224239
      px      :     0.675686
      py      :     0.897305
      dz2     :     0.083872  d :     0.849837
      dxz     :     0.143742
      dyz     :     0.091531
      dx2y2   :     0.246999
      dxy     :     0.283693
      f0      :     0.033090  f :     0.474275
      f+1     :     0.039089
      f-1     :     0.027582
      f+2     :     0.091789
      f-2     :     0.016968
      f+3     :     0.106504
      f-3     :     0.159253
  3 C s       :     2.504403  s :     2.504403
      pz      :     0.637698  p :     2.302076
      px      :     0.813834
      py      :     0.850544
      dz2     :     0.073735  d :     0.695223
      dxz     :     0.129308
      dyz     :     0.054604
      dx2y2   :     0.257766
      dxy     :     0.179811
      f0      :     0.022236  f :     0.349278
      f+1     :     0.027774
      f-1     :     0.025739
      f+2     :     0.011368
      f-2     :     0.074978
      f+3     :     0.115712
      f-3     :     0.071472
  4 C s       :     2.504393  s :     2.504393
      pz      :     0.637665  p :     2.301966
      px      :     0.837875
      py      :     0.826426
      dz2     :     0.073726  d :     0.695091
      dxz     :     0.069056
      dyz     :     0.114799
      dx2y2   :     0.247968
      dxy     :     0.189541
      f0      :     0.022233  f :     0.349220
      f+1     :     0.025205
      f-1     :     0.028300
      f+2     :     0.036581
      f-2     :     0.049757
      f+3     :     0.096461
      f-3     :     0.090683
  5 H s       :     0.696283  s :     0.696283
      pz      :     0.092802  p :     0.296787
      px      :     0.140395
      py      :     0.063589
      dz2     :     0.022519  d :     0.202889
      dxz     :     0.062578
      dyz     :     0.007033
      dx2y2   :     0.049159
      dxy     :     0.061600
  6 H s       :     0.696357  s :     0.696357
      pz      :     0.092861  p :     0.296908
      px      :     0.075696
      py      :     0.128350
      dz2     :     0.022524  d :     0.202938
      dxz     :     0.016139
      dyz     :     0.053492
      dx2y2   :     0.065236
      dxy     :     0.045547
  7 H s       :     0.681087  s :     0.681087
      pz      :     0.091203  p :     0.305388
      px      :     0.071842
      py      :     0.142344
      dz2     :     0.020683  d :     0.204906
      dxz     :     0.004112
      dyz     :     0.061701
      dx2y2   :     0.043706
      dxy     :     0.074705
  8 H s       :     0.681184  s :     0.681184
      pz      :     0.091281  p :     0.305576
      px      :     0.136610
      py      :     0.077685
      dz2     :     0.020691  d :     0.204990
      dxz     :     0.054436
      dyz     :     0.011404
      dx2y2   :     0.052455
      dxy     :     0.066004


                      *****************************
                      * MAYER POPULATION ANALYSIS *
                      *****************************

  NA   - Mulliken gross atomic population
  ZA   - Total nuclear charge
  QA   - Mulliken gross atomic charge
  VA   - Mayer's total valence
  BVA  - Mayer's bonded valence
  FA   - Mayer's free valence

  ATOM       NA         ZA         QA         VA         BVA        FA
  0 C      6.5516     6.0000    -0.5516     3.0911     2.7385     0.3526
  1 O      8.1910     8.0000    -0.1910     2.3131     1.8631     0.4499
  2 C      6.5522     6.0000    -0.5522     3.0912     2.7386     0.3526
  3 C      6.5256     6.0000    -0.5256     3.3966     3.0261     0.3705
  4 C      6.5265     6.0000    -0.5265     3.3968     3.0263     0.3705
  5 H      0.3030     1.0000     0.6970     0.4336     0.3900     0.0436
  6 H      0.3029     1.0000     0.6971     0.4336     0.3900     0.0436
  7 H      0.5238     1.0000     0.4762     0.8457     0.7919     0.0537
  8 H      0.5234     1.0000     0.4766     0.8450     0.7913     0.0537

  Mayer bond orders larger than 0.100000
B(  0-C ,  1-O ) :   1.0150 B(  0-C ,  2-C ) :   0.1058 B(  0-C ,  3-C ) :   1.1519 
B(  0-C ,  5-H ) :   0.4242 B(  1-O ,  2-C ) :   1.0152 B(  2-C ,  4-C ) :   1.1523 
B(  2-C ,  6-H ) :   0.4240 B(  3-C ,  4-C ) :   1.1592 B(  3-C ,  7-H ) :   0.8120 
B(  4-C ,  8-H ) :   0.8113 


----------------------------------
MP2 DERIVATIVE INTEGRAL GENERATION
----------------------------------


Input Wavefunction Amplitudes       ... furan_MP2_aug-cc-pVTZ_OPT.mp2tsaa.tmp
Input Correlated Electron Density   ... furan_MP2_aug-cc-pVTZ_OPT.pmp2re
Input Energy Weighted Density       ... furan_MP2_aug-cc-pVTZ_OPT.wmp2.tmp
Input SCF Electron Density          ... furan_MP2_aug-cc-pVTZ_OPT.scfp

One-Electron Terms    ...
                        ... One-Electron Terms done
Prescreening matrices              ... done

Batch handling in the gradient evaluation:
Memory available                      ... 1000.0 MB
Memory per occupied orbital in Q2     ...   10.3 MB
Memory per occupied orbital in Q3     ...    0.1 MB
Total memory requirement per |i>      ...   10.4 MB
Max. Number of orbitals possible      ...     96
Number of orbitals treated per batch  ...     13
Number of batches to be done          ...      1
Batch   0: i=    5 ...    17

---------------------------------------
MP2 TOTAL ENERGY:     -229.592547897 Eh
---------------------------------------

-----------------------------------
NORM OF THE MP2 GRADIENT:  0.018588
-----------------------------------

-------------------------   --------------------
FINAL SINGLE POINT ENERGY      -229.592547896961
-------------------------   --------------------

------------------------------------------------------------------------------
                         ORCA GEOMETRY RELAXATION STEP
------------------------------------------------------------------------------

Reading the OPT-File                    .... done
Getting information on internals        .... done
Copying old internal coords+grads       .... done
Making the new internal coordinates     .... (new redundants).... done
Validating the new internal coordinates .... (new redundants).... done
[...]
      dx2y2   :     0.065075
      dxy     :     0.045371
  7 H s       :     0.688254  s :     0.688254
      pz      :     0.092888  p :     0.303188
      px      :     0.068100
      py      :     0.142200
      dz2     :     0.020897  d :     0.205868
      dxz     :     0.004280
      dyz     :     0.062367
      dx2y2   :     0.043460
      dxy     :     0.074864
  8 H s       :     0.688253  s :     0.688253
      pz      :     0.092888  p :     0.303188
      px      :     0.136485
      py      :     0.073814
      dz2     :     0.020897  d :     0.205868
      dxz     :     0.054181
      dyz     :     0.012466
      dx2y2   :     0.052227
      dxy     :     0.066098


                      *****************************
                      * MAYER POPULATION ANALYSIS *
                      *****************************

  NA   - Mulliken gross atomic population
  ZA   - Total nuclear charge
  QA   - Mulliken gross atomic charge
  VA   - Mayer's total valence
  BVA  - Mayer's bonded valence
  FA   - Mayer's free valence

  ATOM       NA         ZA         QA         VA         BVA        FA
  0 C      6.5162     6.0000    -0.5162     3.0197     2.6520     0.3677
  1 O      8.2730     8.0000    -0.2730     2.1530     1.6878     0.4652
  2 C      6.5162     6.0000    -0.5162     3.0197     2.6520     0.3677
  3 C      6.5290     6.0000    -0.5290     3.3747     2.9918     0.3829
  4 C      6.5290     6.0000    -0.5290     3.3747     2.9918     0.3829
  5 H      0.2925     1.0000     0.7075     0.4164     0.3723     0.0442
  6 H      0.2925     1.0000     0.7075     0.4164     0.3723     0.0442
  7 H      0.5258     1.0000     0.4742     0.8492     0.7944     0.0548
  8 H      0.5258     1.0000     0.4742     0.8491     0.7944     0.0548

  Mayer bond orders larger than 0.100000
B(  0-C ,  1-O ) :   0.9566 B(  0-C ,  3-C ) :   1.2070 B(  0-C ,  5-H ) :   0.4092 
B(  1-O ,  2-C ) :   0.9566 B(  2-C ,  4-C ) :   1.2070 B(  2-C ,  6-H ) :   0.4092 
B(  3-C ,  4-C ) :   1.0883 B(  3-C ,  7-H ) :   0.8193 B(  4-C ,  8-H ) :   0.8193 



                *******************************************
                * RELAXED MP2 DENSITY POPULATION ANALYSIS *
                *******************************************

------------------------------------------------------------------------------
                           ORCA POPULATION ANALYSIS
------------------------------------------------------------------------------
Input electron density              ... furan_MP2_aug-cc-pVTZ_OPT.pmp2re
BaseName (.gbw .S,...)              ... furan_MP2_aug-cc-pVTZ_OPT

                    ********************************
                    * MULLIKEN POPULATION ANALYSIS *
                    ********************************

-----------------------
MULLIKEN ATOMIC CHARGES
-----------------------
   0 C :   -0.557270
   1 O :   -0.188548
   2 C :   -0.557266
   3 C :   -0.523218
   4 C :   -0.523223
   5 H :    0.696894
   6 H :    0.696895
   7 H :    0.477865
   8 H :    0.477871
Sum of atomic charges:   -0.0000000

--------------------------------
MULLIKEN REDUCED ORBITAL CHARGES
--------------------------------
  0 C s       :     3.680126  s :     3.680126
      pz      :     1.014139  p :     2.742308
      px      :     1.099023
      py      :     0.629146
      dz2     :     0.006812  d :     0.099957
      dxz     :     0.007944
      dyz     :     0.050852
      dx2y2   :     0.023360
      dxy     :     0.010989
      f0      :     0.003505  f :     0.034879
      f+1     :     0.001187
      f-1     :     0.001598
      f+2     :     0.004123
      f-2     :     0.004766
      f+3     :     0.005111
      f-3     :     0.014588
  1 O s       :     3.857698  s :     3.857698
      pz      :     1.592742  p :     4.209626
      px      :     1.270945
      py      :     1.345939
      dz2     :     0.001933  d :     0.107919
      dxz     :     0.031973
      dyz     :     0.024867
      dx2y2   :     0.028487
      dxy     :     0.020658
      f0      :     0.001715  f :     0.013305
      f+1     :     0.000746
      f-1     :     0.000565
      f+2     :     0.003137
      f-2     :     0.001230
      f+3     :     0.002827
      f-3     :     0.003086
  2 C s       :     3.680116  s :     3.680116
      pz      :     1.014133  p :     2.742320
      px      :     0.652994
      py      :     1.075193
      dz2     :     0.006811  d :     0.099949
      dxz     :     0.043772
      dyz     :     0.015025
      dx2y2   :     0.018389
      dxy     :     0.015952
      f0      :     0.003505  f :     0.034881
      f+1     :     0.001420
      f-1     :     0.001365
      f+2     :     0.008357
      f-2     :     0.000533
      f+3     :     0.000456
      f-3     :     0.019245
  3 C s       :     3.224917  s :     3.224917
      pz      :     1.021149  p :     3.171966
      px      :     1.055765
      py      :     1.095053
      dz2     :     0.011503  d :     0.135948
      dxz     :     0.020552
      dyz     :     0.022354
      dx2y2   :     0.066654
      dxy     :     0.014884
      f0      :     0.002140  f :    -0.009614
      f+1     :     0.001425
      f-1     :     0.001940
      f+2     :     0.000064
      f-2     :     0.001231
      f+3     :    -0.018134
      f-3     :     0.001720
  4 C s       :     3.224920  s :     3.224920
      pz      :     1.021148  p :     3.171968
      px      :     1.127634
      py      :     1.023185
      dz2     :     0.011503  d :     0.135947
      dxz     :     0.020191
      dyz     :     0.022715
      dx2y2   :     0.096381
      dxy     :    -0.014843
      f0      :     0.002140  f :    -0.009613
      f+1     :     0.001569
      f-1     :     0.001796
      f+2     :     0.000744
      f-2     :     0.000551
      f+3     :    -0.017850
      f-3     :     0.001438
  5 H s       :     0.317065  s :     0.317065
      pz      :     0.006297  p :    -0.012212
      px      :    -0.009831
      py      :    -0.008678
      dz2     :    -0.001778  d :    -0.001747
      dxz     :     0.000744
      dyz     :     0.000675
      dx2y2   :     0.000009
      dxy     :    -0.001397
  6 H s       :     0.317066  s :     0.317066
      pz      :     0.006297  p :    -0.012214
      px      :    -0.011850
      py      :    -0.006660
      dz2     :    -0.001778  d :    -0.001747
      dxz     :     0.001100
      dyz     :     0.000319
      dx2y2   :    -0.001722
      dxy     :     0.000335
  7 H s       :     0.484594  s :     0.484594
      pz      :     0.019068  p :     0.038336
      px      :     0.013581
      py      :     0.005687
      dz2     :    -0.002639  d :    -0.000795
      dxz     :    -0.000006
      dyz     :     0.002013
      dx2y2   :    -0.000961
      dxy     :     0.000797
  8 H s       :     0.484590  s :     0.484590
      pz      :     0.019068  p :     0.038334
      px      :     0.007541
      py      :     0.011725
      dz2     :    -0.002639  d :    -0.000795
      dxz     :     0.001777
      dyz     :     0.000230
      dx2y2   :    -0.000222
      dxy     :     0.000058


                     *******************************
                     * LOEWDIN POPULATION ANALYSIS *
                     *******************************

----------------------
LOEWDIN ATOMIC CHARGES
----------------------
   0 C :   -0.049207
   1 O :    0.580666
   2 C :   -0.049227
   3 C :    0.149984
   4 C :    0.149977
   5 H :   -0.198050
   6 H :   -0.198047
   7 H :   -0.193048
   8 H :   -0.193046

-------------------------------
LOEWDIN REDUCED ORBITAL CHARGES
-------------------------------
  0 C s       :     2.505246  s :     2.505246
      pz      :     0.652560  p :     2.223622
      px      :     0.877445
      py      :     0.693618
      dz2     :     0.083831  d :     0.847714
      dxz     :     0.071813
      dyz     :     0.162768
      dx2y2   :     0.313082
      dxy     :     0.216220
      f0      :     0.033115  f :     0.472625
      f+1     :     0.026693
      f-1     :     0.039771
      f+2     :     0.051257
      f-2     :     0.056970
      f+3     :     0.135547
      f-3     :     0.129271
  1 O s       :     2.998933  s :     2.998933
      pz      :     1.245715  p :     3.755640
      px      :     1.224966
      py      :     1.284958
      dz2     :     0.051746  d :     0.516770
      dxz     :     0.095548
      dyz     :     0.071330
      dx2y2   :     0.132204
      dxy     :     0.165942
      f0      :     0.008959  f :     0.147991
      f+1     :     0.010006
      f-1     :     0.008974
      f+2     :     0.034130
      f-2     :     0.005272
      f+3     :     0.029096
      f-3     :     0.051554
  2 C s       :     2.505243  s :     2.505243
      pz      :     0.652556  p :     2.223626
      px      :     0.675885
      py      :     0.895185
      dz2     :     0.083832  d :     0.847728
      dxz     :     0.143498
      dyz     :     0.091088
      dx2y2   :     0.246389
      dxy     :     0.282921
      f0      :     0.033116  f :     0.472631
      f+1     :     0.039024
      f-1     :     0.027441
      f+2     :     0.091395
      f-2     :     0.016834
      f+3     :     0.105852
      f-3     :     0.158970
  3 C s       :     2.505118  s :     2.505118
      pz      :     0.637508  p :     2.302002
      px      :     0.813562
      py      :     0.850931
      dz2     :     0.073606  d :     0.694928
      dxz     :     0.129655
      dyz     :     0.054292
      dx2y2   :     0.257019
      dxy     :     0.180357
      f0      :     0.022141  f :     0.347969
      f+1     :     0.027682
      f-1     :     0.025632
      f+2     :     0.011296
      f-2     :     0.074899
      f+3     :     0.115168
      f-3     :     0.071151
  4 C s       :     2.505116  s :     2.505116
      pz      :     0.637508  p :     2.302003
      px      :     0.840680
      py      :     0.823815
      dz2     :     0.073606  d :     0.694932
      dxz     :     0.069263
      dyz     :     0.114685
      dx2y2   :     0.249043
      dxy     :     0.188335
      f0      :     0.022141  f :     0.347972
      f+1     :     0.025205
      f-1     :     0.028110
      f+2     :     0.036599
      f-2     :     0.049596
      f+3     :     0.096773
      f-3     :     0.089548
  5 H s       :     0.697155  s :     0.697155
      pz      :     0.093607  p :     0.297879
      px      :     0.140748
      py      :     0.063524
      dz2     :     0.022533  d :     0.203016
      dxz     :     0.062704
      dyz     :     0.007010
      dx2y2   :     0.048992
      dxy     :     0.061777
  6 H s       :     0.697153  s :     0.697153
      pz      :     0.093607  p :     0.297878
      px      :     0.075559
      py      :     0.128712
      dz2     :     0.022533  d :     0.203016
      dxz     :     0.016148
      dyz     :     0.053565
      dx2y2   :     0.065054
      dxy     :     0.045715
  7 H s       :     0.681752  s :     0.681752
      pz      :     0.091508  p :     0.306166
      px      :     0.072009
      py      :     0.142648
      dz2     :     0.020723  d :     0.205131
      dxz     :     0.004123
      dyz     :     0.061734
      dx2y2   :     0.043745
      dxy     :     0.074807
  8 H s       :     0.681750  s :     0.681750
      pz      :     0.091508  p :     0.306165
      px      :     0.136995
      py      :     0.077662
      dz2     :     0.020723  d :     0.205131
      dxz     :     0.054764
      dyz     :     0.011092
      dx2y2   :     0.052390
      dxy     :     0.066162


                      *****************************
                      * MAYER POPULATION ANALYSIS *
                      *****************************

  NA   - Mulliken gross atomic population
  ZA   - Total nuclear charge
  QA   - Mulliken gross atomic charge
  VA   - Mayer's total valence
  BVA  - Mayer's bonded valence
  FA   - Mayer's free valence

  ATOM       NA         ZA         QA         VA         BVA        FA
  0 C      6.5573     6.0000    -0.5573     3.0894     2.7336     0.3558
  1 O      8.1885     8.0000    -0.1885     2.3212     1.8705     0.4508
  2 C      6.5573     6.0000    -0.5573     3.0894     2.7336     0.3558
  3 C      6.5232     6.0000    -0.5232     3.3951     3.0231     0.3720
  4 C      6.5232     6.0000    -0.5232     3.3951     3.0231     0.3720
  5 H      0.3031     1.0000     0.6969     0.4350     0.3913     0.0436
  6 H      0.3031     1.0000     0.6969     0.4350     0.3913     0.0436
  7 H      0.5221     1.0000     0.4779     0.8419     0.7881     0.0538
  8 H      0.5221     1.0000     0.4779     0.8419     0.7881     0.0538

  Mayer bond orders larger than 0.100000
B(  0-C ,  1-O ) :   1.0175 B(  0-C ,  3-C ) :   1.1506 B(  0-C ,  5-H ) :   0.4231 
B(  1-O ,  2-C ) :   1.0175 B(  2-C ,  4-C ) :   1.1506 B(  2-C ,  6-H ) :   0.4231 
B(  3-C ,  4-C ) :   1.1560 B(  3-C ,  7-H ) :   0.8078 B(  4-C ,  8-H ) :   0.8078 



----------------------------------
MP2 DERIVATIVE INTEGRAL GENERATION
----------------------------------


Input Wavefunction Amplitudes       ... furan_MP2_aug-cc-pVTZ_OPT.mp2tsaa.tmp
Input Correlated Electron Density   ... furan_MP2_aug-cc-pVTZ_OPT.pmp2re
Input Energy Weighted Density       ... furan_MP2_aug-cc-pVTZ_OPT.wmp2.tmp
Input SCF Electron Density          ... furan_MP2_aug-cc-pVTZ_OPT.scfp

One-Electron Terms    ...
                        ... One-Electron Terms done
Prescreening matrices              ... done

Batch handling in the gradient evaluation:
Memory available                      ... 1000.0 MB
Memory per occupied orbital in Q2     ...   10.3 MB
Memory per occupied orbital in Q3     ...    0.1 MB
Total memory requirement per |i>      ...   10.4 MB
Max. Number of orbitals possible      ...     96
Number of orbitals treated per batch  ...     13
Number of batches to be done          ...      1
Batch   0: i=    5 ...    17

---------------------------------------
MP2 TOTAL ENERGY:     -229.592743901 Eh
---------------------------------------

-----------------------------------
NORM OF THE MP2 GRADIENT:  0.000355
-----------------------------------

-------------------------   --------------------
FINAL SINGLE POINT ENERGY      -229.592743900957
-------------------------   --------------------

                                *** OPTIMIZATION RUN DONE ***

                            ***************************************
                            *     ORCA property calculations      *
                            ***************************************

                                    ---------------------
                                    Active property flags
                                    ---------------------
   (+) Dipole Moment


------------------------------------------------------------------------------
                       ORCA ELECTRIC PROPERTIES CALCULATION
------------------------------------------------------------------------------

Dipole Moment Calculation                       ... on
Quadrupole Moment Calculation                   ... off
Polarizability Calculation                      ... off
GBWName                                         ... furan_MP2_aug-cc-pVTZ_OPT.gbw
Electron density file                           ... furan_MP2_aug-cc-pVTZ_OPT.scfp
The origin for moment calculation is the CENTER OF MASS  = ( 1.268425,  1.766761 -0.000000)

-------------
DIPOLE MOMENT
-------------
                                X             Y             Z
Electronic contribution:     -0.93149      -1.29698      -0.00000
Nuclear contribution   :      1.10746       1.54200       0.00000
                        -----------------------------------------
Total Dipole Moment    :      0.17597       0.24502       0.00000
                        -----------------------------------------
Magnitude (a.u.)       :      0.30167
Magnitude (Debye)      :      0.76677



--------------------
Rotational spectrum 
--------------------
 
Rotational constants in cm-1:     0.317553     0.308215     0.156407 
Rotational constants in MHz :  9520.004856  9240.043848  4688.967693 

 Dipole components along the rotational axes: 
x,y,z [a.u.] :     0.301665     0.000001     0.000000 
x,y,z [Debye]:     0.766772     0.000003     0.000000 

 

                         *** MP2 UNRELAXED DENSITY ***

------------------------------------------------------------------------------
                       ORCA ELECTRIC PROPERTIES CALCULATION
------------------------------------------------------------------------------

Dipole Moment Calculation                       ... on
Quadrupole Moment Calculation                   ... off
Polarizability Calculation                      ... off
GBWName                                         ... furan_MP2_aug-cc-pVTZ_OPT.gbw
Electron density file                           ... furan_MP2_aug-cc-pVTZ_OPT.pmp2ur
The origin for moment calculation is the CENTER OF MASS  = ( 1.268425,  1.766761 -0.000000)

-------------
DIPOLE MOMENT
-------------
                                X             Y             Z
Electronic contribution:     -0.94584      -1.31695      -0.00000
Nuclear contribution   :      1.10746       1.54200       0.00000
                        -----------------------------------------
Total Dipole Moment    :      0.16162       0.22505       0.00000
                        -----------------------------------------
Magnitude (a.u.)       :      0.27707
Magnitude (Debye)      :      0.70426



--------------------
Rotational spectrum 
--------------------
 
Rotational constants in cm-1:     0.317553     0.308215     0.156407 
Rotational constants in MHz :  9520.004856  9240.043848  4688.967693 

 Dipole components along the rotational axes: 
x,y,z [a.u.] :     0.277071     0.000002     0.000000 
x,y,z [Debye]:     0.704258     0.000004     0.000000 

 

                           *** MP2 RELAXED DENSITY ***

------------------------------------------------------------------------------
                       ORCA ELECTRIC PROPERTIES CALCULATION
------------------------------------------------------------------------------

Dipole Moment Calculation                       ... on
Quadrupole Moment Calculation                   ... off
Polarizability Calculation                      ... off
GBWName                                         ... furan_MP2_aug-cc-pVTZ_OPT.gbw
Electron density file                           ... furan_MP2_aug-cc-pVTZ_OPT.pmp2re
The origin for moment calculation is the CENTER OF MASS  = ( 1.268425,  1.766761 -0.000000)

-------------
DIPOLE MOMENT
-------------
                                X             Y             Z
Electronic contribution:     -0.96360      -1.34169      -0.00000
Nuclear contribution   :      1.10746       1.54200       0.00000
                        -----------------------------------------
Total Dipole Moment    :      0.14386       0.20031       0.00000
                        -----------------------------------------
Magnitude (a.u.)       :      0.24662
Magnitude (Debye)      :      0.62686



--------------------
Rotational spectrum 
--------------------
 
Rotational constants in cm-1:     0.317553     0.308215     0.156407 
Rotational constants in MHz :  9520.004856  9240.043848  4688.967693 

 Dipole components along the rotational axes: 
x,y,z [a.u.] :     0.246621     0.000001     0.000000 
x,y,z [Debye]:     0.626860     0.000004     0.000000 

 

Timings for individual modules:

Sum of individual times         ...      803.936 sec (=  13.399 min)
GTO integral calculation        ...        4.024 sec (=   0.067 min)   0.5 %
SCF iterations                  ...      108.802 sec (=   1.813 min)  13.5 %
MP2 module                      ...      690.916 sec (=  11.515 min)  85.9 %
Geometry relaxation             ...        0.195 sec (=   0.003 min)   0.0 %
                             ****ORCA TERMINATED NORMALLY****
TOTAL RUN TIME: 0 days 0 hours 13 minutes 24 seconds 720 msec
