
                                 *****************
                                 * O   R   C   A *
                                 *****************

           --- An Ab Initio, DFT and Semiempirical electronic structure package ---

                  #######################################################
                  #                        -***-                        #
                  #          Department of theory and spectroscopy      #
                  #               Directorship: Frank Neese             #
                  #        Max Planck Institute fuer Kohlenforschung    #
                  #                Kaiser Wilhelm Platz 1               #
                  #                 D-45470 Muelheim/Ruhr               #
                  #                      Germany                        #
                  #                                                     #
                  #                  All rights reserved                #
                  #                        -***-                        #
                  #######################################################


                         Program Version 4.2.1 -  RELEASE  -


 With contributions from (in alphabetic order):
   Daniel Aravena         : Magnetic Suceptibility
   Michael Atanasov       : Ab Initio Ligand Field Theory (pilot matlab implementation)
   Alexander A. Auer      : GIAO ZORA, VPT2
   Ute Becker             : Parallelization
   Giovanni Bistoni       : ED, misc. LED, open-shell LED, HFLD
   Martin Brehm           : Molecular dynamics
   Dmytro Bykov           : SCF Hessian
   Vijay G. Chilkuri      : MRCI spin determinant printing, contributions to CSF-ICE
   Dipayan Datta          : RHF DLPNO-CCSD density
   Achintya Kumar Dutta   : EOM-CC, STEOM-CC
   Dmitry Ganyushin       : Spin-Orbit,Spin-Spin,Magnetic field MRCI
   Miquel Garcia          : C-PCM Hessian, Gaussian charge scheme
   Yang Guo               : DLPNO-NEVPT2, CIM, IAO-localization
   Andreas Hansen         : Spin unrestricted coupled pair/coupled cluster methods
   Benjamin Helmich-Paris : CASSCF linear response (MC-RPA)
   Lee Huntington         : MR-EOM, pCC
   Robert Izsak           : Overlap fitted RIJCOSX, COSX-SCS-MP3, EOM
   Christian Kollmar      : KDIIS, OOCD, Brueckner-CCSD(T), CCSD density
   Simone Kossmann        : Meta GGA functionals, TD-DFT gradient, OOMP2, MP2 Hessian
   Martin Krupicka        : AUTO-CI
   Lucas Lang             : DCDCAS
   Dagmar Lenk            : GEPOL surface, SMD
   Dimitrios Liakos       : Extrapolation schemes; Compound Job, initial MDCI parallelization
   Dimitrios Manganas     : Further ROCIS development; embedding schemes
   Dimitrios Pantazis     : SARC Basis sets
   Taras Petrenko         : DFT Hessian,TD-DFT gradient, ASA, ECA, R-Raman, ABS, FL, XAS/XES, NRVS
   Peter Pinski           : DLPNO-MP2, DLPNO-MP2 Gradient
   Christoph Reimann      : Effective Core Potentials
   Marius Retegan         : Local ZFS, SOC
   Christoph Riplinger    : Optimizer, TS searches, QM/MM, DLPNO-CCSD(T), (RO)-DLPNO pert. Triples
   Tobias Risthaus        : Range-separated hybrids, TD-DFT gradient, RPA, STAB
   Michael Roemelt        : Original ROCIS implementation
   Masaaki Saitow         : Open-shell DLPNO-CCSD energy and density
   Barbara Sandhoefer     : DKH picture change effects
   Avijit Sen             : IP-ROCIS
   Kantharuban Sivalingam : CASSCF convergence, NEVPT2, FIC-MRCI
   Bernardo de Souza      : ESD, SOC TD-DFT
   Georgi Stoychev        : AutoAux, RI-MP2 NMR
   Willem Van den Heuvel  : Paramagnetic NMR
   Boris Wezisla          : Elementary symmetry handling
   Frank Wennmohs         : Technical directorship


 We gratefully acknowledge several colleagues who have allowed us to
 interface, adapt or use parts of their codes:
   Stefan Grimme, W. Hujo, H. Kruse,             : VdW corrections, initial TS optimization,
                  C. Bannwarth                     DFT functionals, gCP, sTDA/sTD-DF
   Ed Valeev, F. Pavosevic, A. Kumar             : LibInt (2-el integral package), F12 methods
   Garnet Chan, S. Sharma, J. Yang, R. Olivares  : DMRG
   Ulf Ekstrom                                   : XCFun DFT Library
   Mihaly Kallay                                 : mrcc  (arbitrary order and MRCC methods)
   Andreas Klamt, Michael Diedenhofen            : otool_cosmo (COSMO solvation model)
   Jiri Pittner, Ondrej Demel                    : Mk-CCSD
   Frank Weinhold                                : gennbo (NPA and NBO analysis)
   Christopher J. Cramer and Donald G. Truhlar   : smd solvation model
   Lars Goerigk                                  : TD-DFT with DH, B97 family of functionals
   V. Asgeirsson, H. Jonsson                     : NEB implementation
   FAccTs GmbH                                   : IRC, NEB, NEB-TS, Multilevel, MM, QM/MM, CI optimization
   S Lehtola, MJT Oliveira, MAL Marques          : LibXC Library


 Your calculation uses the libint2 library for the computation of 2-el integrals
 For citations please refer to: http://libint.valeyev.net

 Your ORCA version has been built with support for libXC version: 4.2.3
 For citations please refer to: https://tddft.org/programs/libxc/

 This ORCA versions uses:
   CBLAS   interface :  Fast vector & matrix operations
   LAPACKE interface :  Fast linear algebra routines
   SCALAPACK package :  Parallel linear algebra routines




***************************************
The coordinates will be read from file: furan_B3LYP_cc-pVDZ_OPT.xyz
***************************************


----- Orbital basis set information -----
Your calculation utilizes the basis: cc-pVTZ 
       H, B-Ne : Obtained from the ccRepo (grant-hill.group.shef.ac.uk/ccrepo) Feb. 2017
                 T. H. Dunning, Jr., J. Chem. Phys. 90, 1007 (1989)
            He : Obtained from the ccRepo (grant-hill.group.shef.ac.uk/ccrepo) Feb. 2017
                 D. E. Woon, T. H. Dunning, Jr., J. Chem. Phys. 100, 2975 (1994)
  Li-Be, Na-Mg : Obtained from the ccRepo (grant-hill.group.shef.ac.uk/ccrepo) Feb. 2017
                 B. P. Prascher, D. E. Woon, K. A. Peterson, T. H. Dunning, Jr., A. K. Wilson, Theor. Chem. Acc. 128, 69 (2011)
         Al-Ar : Obtained from the ccRepo (grant-hill.group.shef.ac.uk/ccrepo) Feb. 2017
                 D. E. Woon, T. H. Dunning, Jr., J. Chem. Phys. 98, 1358 (1993)
            Ca : Obtained from the Peterson Research Group Website (tyr0.chem.wsu.edu/~kipeters) Feb. 2017
                 J. Koput, K. A. Peterson, J. Phys. Chem. 106, 9595 (2002)
         Sc-Zn : Obtained from the ccRepo (grant-hill.group.shef.ac.uk/ccrepo) Feb. 2017
                 N. B. Balabanov, K. A. Peterson, J. Chem. Phys. 123, 064107 (2005)
                 N. B. Balabanov, K. A. Peterson, J. Chem. Phys. 125, 074110 (2006)
         Ga-Kr : Obtained from the ccRepo (grant-hill.group.shef.ac.uk/ccrepo) Feb. 2017
                 A. K. Wilson, D. E. Woon, K. A. Peterson, T. H. Dunning, Jr., J. Chem. Phys. 110, 7667 (1999)
             Y : Obtained from the ccRepo (grant-hill.group.shef.ac.uk/ccrepo) Feb. 2017
                 K. A. Peterson, D. Figgen, M. Dolg, H. Stoll, J. Chem. Phys. 126, 124101 (2007)
        Ag, Au : Obtained from the Peterson Research Group Website (tyr0.chem.wsu.edu/~kipeters) Feb. 2017
                 K. A. Peterson, C. Puzzarini, Theor. Chem. Acc. 114, 283 (2005)

================================================================================
                                        WARNINGS
                       Please study these warnings very carefully!
================================================================================


WARNING: Geometry Optimization
  ===> : Switching off AutoStart
         For restart on a previous wavefunction, please use MOREAD

INFO   : the flag for use of LIBINT has been found!

================================================================================
                                       INPUT FILE
================================================================================
NAME = furan_B3LYP_cc-pVTZ_OPT.inp
|  1> # furan OPT with B3LYP/cc-pVTZ
|  2> 
|  3> ! B3LYP cc-pVTZ TightSCF Opt PAL16
|  4> %maxcore 1000
|  5> 
|  6> * xyzfile 0 1 furan_B3LYP_cc-pVDZ_OPT.xyz
|  7> 
|  8> 
|  9>                          ****END OF INPUT****
================================================================================

                       *****************************
                       * Geometry Optimization Run *
                       *****************************

Geometry optimization settings:
Update method            Update   .... BFGS
Choice of coordinates    CoordSys .... Z-matrix Internals
Initial Hessian          InHess   .... Almoef's Model

Convergence Tolerances:
Energy Change            TolE     ....  5.0000e-06 Eh
Max. Gradient            TolMAXG  ....  3.0000e-04 Eh/bohr
RMS Gradient             TolRMSG  ....  1.0000e-04 Eh/bohr
Max. Displacement        TolMAXD  ....  4.0000e-03 bohr
RMS Displacement         TolRMSD  ....  2.0000e-03 bohr
Strict Convergence                ....  False
------------------------------------------------------------------------------
                        ORCA OPTIMIZATION COORDINATE SETUP
------------------------------------------------------------------------------

The optimization will be done in new redundant internal coordinates
Making redundant internal coordinates   ...  (new redundants) done
Evaluating the initial hessian          ...  (Almloef) done
Evaluating the coordinates              ...  done
Calculating the B-matrix                .... done
Calculating the G-matrix                .... done
Diagonalizing the G-matrix              .... done
The first mode is                       ....   17
The number of degrees of freedom        ....   21

    -----------------------------------------------------------------
                    Redundant Internal Coordinates


    -----------------------------------------------------------------
         Definition                    Initial Value    Approx d2E/dq
    -----------------------------------------------------------------
      1. B(O   1,C   0)                  1.3641         0.615450   
      2. B(C   2,O   1)                  1.3642         0.615155   
      3. B(C   3,C   0)                  1.3643         0.686608   
      4. B(C   4,C   3)                  1.4378         0.524212   
      5. B(C   4,C   2)                  1.3646         0.685817   
      6. B(H   5,C   0)                  1.0861         0.365251   
      7. B(H   6,C   2)                  1.0858         0.365638   
      8. B(H   7,C   3)                  1.0876         0.363270   
      9. B(H   8,C   4)                  1.0872         0.363797   
     10. A(O   1,C   0,C   3)          110.5780         0.438639   
     11. A(O   1,C   0,H   5)          115.7387         0.351143   
     12. A(C   3,C   0,H   5)          133.6833         0.359945   
     13. A(C   0,O   1,C   2)          106.8274         0.427244   
     14. A(O   1,C   2,C   4)          110.5613         0.438510   
     15. A(O   1,C   2,H   6)          115.7701         0.351177   
     16. A(C   4,C   2,H   6)          133.6686         0.359939   
     17. A(C   0,C   3,H   7)          126.4630         0.359611   
     18. A(C   0,C   3,C   4)          106.0190         0.428967   
     19. A(C   4,C   3,H   7)          127.5180         0.343577   
     20. A(C   3,C   4,H   8)          127.5218         0.343661   
     21. A(C   2,C   4,H   8)          126.4640         0.359630   
     22. A(C   2,C   4,C   3)          106.0142         0.428878   
     23. D(C   2,O   1,C   0,H   5)    180.0000         0.027761   
     24. D(C   2,O   1,C   0,C   3)     -0.0000         0.027761   
     25. D(C   4,C   2,O   1,C   0)      0.0000         0.027732   
     26. D(H   6,C   2,O   1,C   0)   -180.0000         0.027732   
     27. D(C   4,C   3,C   0,H   5)    180.0000         0.033097   
     28. D(C   4,C   3,C   0,O   1)     -0.0000         0.033097   
     29. D(H   7,C   3,C   0,O   1)   -180.0000         0.033097   
     30. D(H   7,C   3,C   0,H   5)      0.0000         0.033097   
     31. D(C   2,C   4,C   3,H   7)   -180.0000         0.018747   
     32. D(C   2,C   4,C   3,C   0)      0.0000         0.018747   
     33. D(H   8,C   4,C   2,H   6)      0.0000         0.033015   
     34. D(H   8,C   4,C   2,O   1)    180.0000         0.033015   
     35. D(C   3,C   4,C   2,H   6)    180.0000         0.033015   
     36. D(H   8,C   4,C   3,C   0)   -180.0000         0.018747   
     37. D(C   3,C   4,C   2,O   1)     -0.0000         0.033015   
     38. D(H   8,C   4,C   3,H   7)     -0.0000         0.018747   
    -----------------------------------------------------------------

Number of atoms                         .... 9
Number of degrees of freedom            .... 38

         *************************************************************
         *                GEOMETRY OPTIMIZATION CYCLE   1            *
         *************************************************************
---------------------------------
CARTESIAN COORDINATES (ANGSTROEM)
---------------------------------
  C     -0.406547    1.311879    0.000000
  O      0.008649    0.012499    0.000000
  C      1.372716    0.033762   -0.000000
  C      0.664162    2.157427   -0.000000
  C      1.832017    1.318779    0.000000
  H     -1.482062    1.463383    0.000000
  H      1.859982   -0.936615   -0.000000
  H      0.629327    3.244484   -0.000000
  H      2.872856    1.632942    0.000000

----------------------------
CARTESIAN COORDINATES (A.U.)
----------------------------
  NO LB      ZA    FRAG     MASS         X           Y           Z
   0 C     6.0000    0    12.011   -0.768263    2.479093    0.000000
   1 O     8.0000    0    15.999    0.016343    0.023619    0.000000
   2 C     6.0000    0    12.011    2.594057    0.063801   -0.000000
   3 C     6.0000    0    12.011    1.255085    4.076947   -0.000000
   4 C     6.0000    0    12.011    3.462010    2.492131    0.000000
   5 H     1.0000    0     1.008   -2.800692    2.765394    0.000000
   6 H     1.0000    0     1.008    3.514857   -1.769946   -0.000000
   7 H     1.0000    0     1.008    1.189256    6.131185   -0.000000
   8 H     1.0000    0     1.008    5.428912    3.085812    0.000000

--------------------------------
INTERNAL COORDINATES (ANGSTROEM)
--------------------------------
 C      0   0   0     0.000000000000     0.00000000     0.00000000
 O      1   0   0     1.364103002944     0.00000000     0.00000000
 C      2   1   0     1.364233248595   106.82737682     0.00000000
 C      1   2   3     1.364320482659   110.57801624     0.00000000
 C      3   2   1     1.364633985354   110.56133698     0.00000000
 H      1   2   3     1.086133772997   115.73872130   179.99999246
 H      3   2   1     1.085845167297   115.77006494   180.00000699
 H      4   1   2     1.087614120598   126.46299565   180.00000372
 H      5   3   2     1.087219314831   126.46397997   179.99998629

---------------------------
INTERNAL COORDINATES (A.U.)
---------------------------
 C      0   0   0     0.000000000000     0.00000000     0.00000000
 O      1   0   0     2.577781094023     0.00000000     0.00000000
 C      2   1   0     2.578027222634   106.82737682     0.00000000
 C      1   2   3     2.578192071124   110.57801624     0.00000000
 C      3   2   1     2.578784505360   110.56133698     0.00000000
 H      1   2   3     2.052495375767   115.73872130   179.99999246
 H      3   2   1     2.051949990034   115.77006494   180.00000699
 H      4   1   2     2.055292827315   126.46299565   180.00000372
 H      5   3   2     2.054546752540   126.46397997   179.99998629

---------------------
BASIS SET INFORMATION
---------------------
There are 3 groups of distinct atoms

 Group   1 Type C   : 18s5p2d1f contracted to 4s3p2d1f pattern {8811/311/11/1}
 Group   2 Type O   : 18s5p2d1f contracted to 4s3p2d1f pattern {8811/311/11/1}
 Group   3 Type H   : 5s2p1d contracted to 3s2p1d pattern {311/11/1}

Atom   0C    basis set group =>   1
Atom   1O    basis set group =>   2
Atom   2C    basis set group =>   1
Atom   3C    basis set group =>   1
Atom   4C    basis set group =>   1
Atom   5H    basis set group =>   3
Atom   6H    basis set group =>   3
Atom   7H    basis set group =>   3
Atom   8H    basis set group =>   3


           ************************************************************
           *        Program running with 16 parallel MPI-processes    *
           *              working on a common directory               *
           ************************************************************
------------------------------------------------------------------------------
                           ORCA GTO INTEGRAL CALCULATION
------------------------------------------------------------------------------

                         BASIS SET STATISTICS AND STARTUP INFO

 # of primitive gaussian shells          ...  162
 # of primitive gaussian functions       ...  314
 # of contracted shells                  ...   74
 # of contracted basis functions         ...  206
 Highest angular momentum                ...    3
 Maximum contraction depth               ...    8
 Integral package used                   ... LIBINT
 Integral threshhold            Thresh   ...  2.500e-11
 Primitive cut-off              TCut     ...  2.500e-12


------------------------------ INTEGRAL EVALUATION ----------------------------


 * One electron integrals 
 Pre-screening matrix                    ... done
 Shell pair data                         ... done (   0.001 sec)



           ************************************************************
           *        Program running with 16 parallel MPI-processes    *
           *              working on a common directory               *
           ************************************************************
-------------------------------------------------------------------------------
                                 ORCA SCF
-------------------------------------------------------------------------------

------------
SCF SETTINGS
------------
Hamiltonian:
 Density Functional     Method          .... DFT(GTOs)
 Exchange Functional    Exchange        .... B88
   X-Alpha parameter    XAlpha          ....  0.666667
   Becke's b parameter  XBeta           ....  0.004200
 Correlation Functional Correlation     .... LYP
 LDA part of GGA corr.  LDAOpt          .... VWN-5
 Gradients option       PostSCFGGA      .... off
 Hybrid DFT is turned on
   Fraction HF Exchange ScalHFX         ....  0.200000
   Scaling of DF-GGA-X  ScalDFX         ....  0.720000
   Scaling of DF-GGA-C  ScalDFC         ....  0.810000
   Scaling of DF-LDA-C  ScalLDAC        ....  1.000000
   Perturbative correction              ....  0.000000
   Density functional embedding theory  .... OFF
   NL short-range parameter             ....  4.800000


General Settings:
 Integral files         IntName         .... furan_B3LYP_cc-pVTZ_OPT
 Hartree-Fock type      HFTyp           .... RHF
 Total Charge           Charge          ....    0
 Multiplicity           Mult            ....    1
 Number of Electrons    NEL             ....   36
 Basis Dimension        Dim             ....  206
 Nuclear Repulsion      ENuc            ....    160.3919542758 Eh

Convergence Acceleration:
 DIIS                   CNVDIIS         .... on
   Start iteration      DIISMaxIt       ....    12
   Startup error        DIISStart       ....  0.200000
   # of expansion vecs  DIISMaxEq       ....     5
   Bias factor          DIISBfac        ....   1.050
   Max. coefficient     DIISMaxC        ....  10.000
 Newton-Raphson         CNVNR           .... off
 SOSCF                  CNVSOSCF        .... on
   Start iteration      SOSCFMaxIt      ....   150
   Startup grad/error   SOSCFStart      ....  0.003300
 Level Shifting         CNVShift        .... on
   Level shift para.    LevelShift      ....    0.2500
   Turn off err/grad.   ShiftErr        ....    0.0010
 Zerner damping         CNVZerner       .... off
 Static damping         CNVDamp         .... on
   Fraction old density DampFac         ....    0.7000
   Max. Damping (<1)    DampMax         ....    0.9800
   Min. Damping (>=0)   DampMin         ....    0.0000
   Turn off err/grad.   DampErr         ....    0.1000
 Fernandez-Rico         CNVRico         .... off

SCF Procedure:
 Maximum # iterations   MaxIter         ....   125
 SCF integral mode      SCFMode         .... Direct
   Integral package                     .... LIBINT
 Reset frequency        DirectResetFreq ....    20
 Integral Threshold     Thresh          ....  2.500e-11 Eh
 Primitive CutOff       TCut            ....  2.500e-12 Eh

Convergence Tolerance:
 Convergence Check Mode ConvCheckMode   .... Total+1el-Energy
 Convergence forced     ConvForced      .... 0
 Energy Change          TolE            ....  1.000e-08 Eh
 1-El. energy change                    ....  1.000e-05 Eh
 Orbital Gradient       TolG            ....  1.000e-05
 Orbital Rotation angle TolX            ....  1.000e-05
 DIIS Error             TolErr          ....  5.000e-07


Diagonalization of the overlap matrix:
Smallest eigenvalue                        ... 1.239e-04
Time for diagonalization                   ...    0.014 sec
Threshold for overlap eigenvalues          ... 1.000e-08
Number of eigenvalues below threshold      ... 0
Time for construction of square roots      ...    0.011 sec
Total time needed                          ...    0.025 sec

-------------------
DFT GRID GENERATION
-------------------

General Integration Accuracy     IntAcc      ...  4.340
Radial Grid Type                 RadialGrid  ... Gauss-Chebyshev
Angular Grid (max. acc.)         AngularGrid ... Lebedev-110
Angular grid pruning method      GridPruning ... 3 (G Style)
Weight generation scheme         WeightScheme... Becke
Basis function cutoff            BFCut       ...    1.0000e-11
Integration weight cutoff        WCut        ...    1.0000e-14
Grids for H and He will be reduced by one unit

# of grid points (after initial pruning)     ...  11516 (   0.0 sec)
# of grid points (after weights+screening)   ...  10955 (   0.0 sec)
nearest neighbour list constructed           ...    0.0 sec
Grid point re-assignment to atoms done       ...    0.0 sec
Grid point division into batches done        ...    0.0 sec
Reduced shell lists constructed in    0.0 sec

Total number of grid points                  ...    10955
Total number of batches                      ...      177
Average number of points per batch           ...       61
Average number of grid points per atom       ...     1217
Average number of shells per batch           ...    64.69 (87.42%)
Average number of basis functions per batch  ...   180.38 (87.57%)
Average number of large shells per batch     ...    58.15 (89.89%)
Average number of large basis fcns per batch ...   160.92 (89.21%)
Maximum spatial batch extension              ...   2.94,  3.24, 19.48 au
Average spatial batch extension              ...   0.13,  0.14,  0.34 au

Time for grid setup =    0.021 sec

------------------------------
INITIAL GUESS: MODEL POTENTIAL
------------------------------
Loading Hartree-Fock densities                     ... done
Calculating cut-offs                               ... done
Setting up the integral package                    ... done
Initializing the effective Hamiltonian             ... done
Starting the Coulomb interaction                   ... done (   0.0 sec)
Reading the grid                                   ... done
Mapping shells                                     ... done
Starting the XC term evaluation                    ... done (   0.0 sec)
  promolecular density results
     # of electrons  =     36.002582642
     EX              =    -29.942745735
     EC              =     -1.216243282
     EX+EC           =    -31.158989017
Transforming the Hamiltonian                       ... done (   0.0 sec)
Diagonalizing the Hamiltonian                      ... done (   0.0 sec)
Back transforming the eigenvectors                 ... done (   0.0 sec)
Now organizing SCF variables                       ... done
                      ------------------
                      INITIAL GUESS DONE (   0.1 sec)
                      ------------------
--------------
SCF ITERATIONS
--------------
ITER       Energy         Delta-E        Max-DP      RMS-DP      [F,P]     Damp
               ***  Starting incremental Fock matrix formation  ***
  0   -229.8585253637   0.000000000000 0.02353626  0.00073529  0.1636111 0.7000
  1   -229.9117517002  -0.053226336447 0.01730723  0.00055257  0.0863605 0.7000
                               ***Turning on DIIS***
  2   -229.9338557254  -0.022104025272 0.03240376  0.00094823  0.0345525 0.0000
  3   -229.9658001970  -0.031944471530 0.01204163  0.00038531  0.0466749 0.0000
  4   -229.9744211156  -0.008620918628 0.00435018  0.00012808  0.0085355 0.0000
                      *** Initiating the SOSCF procedure ***
                           *** Shutting down DIIS ***
                      *** Re-Reading the Fockian *** 
                      *** Removing any level shift *** 
ITER      Energy       Delta-E        Grad      Rot      Max-DP    RMS-DP
  5   -229.97481410  -0.0003929835  0.000961  0.000961  0.001189  0.000042
               *** Restarting incremental Fock matrix formation ***
  6   -229.97484064  -0.0000265371  0.000276  0.000766  0.000866  0.000029
  7   -229.97483900   0.0000016365  0.000647  0.000850  0.000431  0.000011
  8   -229.97484290  -0.0000038987  0.000103  0.000201  0.000227  0.000007
  9   -229.97484282   0.0000000833  0.000127  0.000109  0.000103  0.000003
 10   -229.97484310  -0.0000002824  0.000005  0.000010  0.000007  0.000000
 11   -229.97484310   0.0000000000  0.000008  0.000008  0.000004  0.000000
                 **** Energy Check signals convergence ****
              ***Rediagonalizing the Fockian in SOSCF/NRSCF***

               *****************************************************
               *                     SUCCESS                       *
               *           SCF CONVERGED AFTER  12 CYCLES          *
               *****************************************************

Setting up the final grid:

General Integration Accuracy     IntAcc      ...  4.670
Radial Grid Type                 RadialGrid  ... Gauss-Chebyshev
Angular Grid (max. acc.)         AngularGrid ... Lebedev-302
Angular grid pruning method      GridPruning ... 3 (G Style)
Weight generation scheme         WeightScheme... Becke
Basis function cutoff            BFCut       ...    1.0000e-11
Integration weight cutoff        WCut        ...    1.0000e-14
Grids for H and He will be reduced by one unit

# of grid points (after initial pruning)     ...  44636 (   0.0 sec)
# of grid points (after weights+screening)   ...  42063 (   0.0 sec)
nearest neighbour list constructed           ...    0.0 sec
Grid point re-assignment to atoms done       ...    0.0 sec
Grid point division into batches done        ...    0.1 sec
Reduced shell lists constructed in    0.1 sec

Total number of grid points                  ...    42063
Total number of batches                      ...      662
Average number of points per batch           ...       63
Average number of grid points per atom       ...     4674
Average number of shells per batch           ...    64.88 (87.68%)
Average number of basis functions per batch  ...   179.91 (87.33%)
Average number of large shells per batch     ...    56.47 (87.03%)
Average number of large basis fcns per batch ...   154.93 (86.12%)
Maximum spatial batch extension              ...   3.13,  3.55, 16.65 au
Average spatial batch extension              ...   0.09,  0.10,  0.14 au

Final grid set up in    0.2 sec
Final integration                            ... done (   0.1 sec)
Change in XC energy                          ...    -0.000193150
Integrated number of electrons               ...    35.999970380
Previous integrated no of electrons          ...    36.004640084

----------------
TOTAL SCF ENERGY
----------------

Total Energy       :         -229.97503625 Eh           -6257.93888 eV

Components:
Nuclear Repulsion  :          160.39195428 Eh            4364.48696 eV
Electronic Energy  :         -390.36699052 Eh          -10622.42585 eV
One Electron Energy:         -628.51685713 Eh          -17102.81317 eV
Two Electron Energy:          238.14986660 Eh            6480.38733 eV

Virial components:
Potential Energy   :         -458.41886058 Eh          -12474.21137 eV
Kinetic Energy     :          228.44382434 Eh            6216.27249 eV
Virial Ratio       :            2.00670279


DFT components:
N(Alpha)           :       17.999985190137 electrons
N(Beta)            :       17.999985190137 electrons
N(Total)           :       35.999970380273 electrons
E(X)               :      -24.122023539718 Eh       
E(C)               :       -1.439393225606 Eh       
E(XC)              :      -25.561416765324 Eh       
DFET-embed. en.    :        0.000000000000 Eh       

---------------
SCF CONVERGENCE
---------------

  Last Energy change         ...   -2.6517e-10  Tolerance :   1.0000e-08
  Last MAX-Density change    ...    2.0563e-06  Tolerance :   1.0000e-07
  Last RMS-Density change    ...    7.0930e-08  Tolerance :   5.0000e-09
  Last Orbital Gradient      ...    1.1790e-06  Tolerance :   1.0000e-05
  Last Orbital Rotation      ...    3.1483e-06  Tolerance :   1.0000e-05

             **** THE GBW FILE WAS UPDATED (furan_B3LYP_cc-pVTZ_OPT.gbw) ****
             **** DENSITY FILE WAS UPDATED (furan_B3LYP_cc-pVTZ_OPT.scfp) ****
             **** ENERGY FILE WAS UPDATED (furan_B3LYP_cc-pVTZ_OPT.en.tmp) ****
             **** THE GBW FILE WAS UPDATED (furan_B3LYP_cc-pVTZ_OPT.gbw) ****
             **** DENSITY FILE WAS UPDATED (furan_B3LYP_cc-pVTZ_OPT.scfp) ****
----------------
ORBITAL ENERGIES
----------------

  NO   OCC          E(Eh)            E(eV) 
   0   2.0000     -19.195227      -522.3287 
   1   2.0000     -10.223275      -278.1895 
   2   2.0000     -10.223240      -278.1885 
   3   2.0000     -10.175916      -276.9007 
   4   2.0000     -10.175501      -276.8895 
   5   2.0000      -1.108449       -30.1624 
   6   2.0000      -0.797451       -21.6997 
   7   2.0000      -0.742742       -20.2110 
   8   2.0000      -0.597075       -16.2472 
   9   2.0000      -0.567477       -15.4418 
  10   2.0000      -0.539749       -14.6873 
  11   2.0000      -0.450135       -12.2488 
  12   2.0000      -0.443992       -12.0816 
  13   2.0000      -0.410354       -11.1663 
  14   2.0000      -0.398466       -10.8428 
  15   2.0000      -0.373920       -10.1749 
  16   2.0000      -0.282023        -7.6742 
  17   2.0000      -0.232324        -6.3219 
  18   0.0000       0.003984         0.1084 
  19   0.0000       0.057467         1.5638 
  20   0.0000       0.058346         1.5877 
  21   0.0000       0.080643         2.1944 
  22   0.0000       0.084797         2.3075 
  23   0.0000       0.096967         2.6386 
  24   0.0000       0.133900         3.6436 
  25   0.0000       0.169194         4.6040 
  26   0.0000       0.210635         5.7317 
  27   0.0000       0.244960         6.6657 
  28   0.0000       0.265405         7.2220 
  29   0.0000       0.274952         7.4818 
  30   0.0000       0.313358         8.5269 
  31   0.0000       0.324363         8.8264 
  32   0.0000       0.349310         9.5052 
  33   0.0000       0.351442         9.5632 
  34   0.0000       0.361138         9.8271 
  35   0.0000       0.364476         9.9179 
  36   0.0000       0.398804        10.8520 
  37   0.0000       0.399876        10.8812 
  38   0.0000       0.417873        11.3709 
  39   0.0000       0.447926        12.1887 
  40   0.0000       0.467104        12.7106 
  41   0.0000       0.487973        13.2784 
  42   0.0000       0.500834        13.6284 
  43   0.0000       0.511649        13.9227 
  44   0.0000       0.539711        14.6863 
  45   0.0000       0.545872        14.8539 
  46   0.0000       0.651227        17.7208 
  47   0.0000       0.654077        17.7983 
  48   0.0000       0.660034        17.9604 
  49   0.0000       0.690643        18.7933 
  50   0.0000       0.695742        18.9321 
  51   0.0000       0.697087        18.9687 
  52   0.0000       0.711323        19.3561 
  53   0.0000       0.755960        20.5707 
  54   0.0000       0.823820        22.4173 
  55   0.0000       0.831475        22.6256 
  56   0.0000       0.903790        24.5934 
  57   0.0000       0.924556        25.1585 
  58   0.0000       0.967034        26.3143 
  59   0.0000       0.969122        26.3712 
  60   0.0000       0.982717        26.7411 
  61   0.0000       0.983503        26.7625 
  62   0.0000       0.989940        26.9376 
  63   0.0000       1.060041        28.8452 
  64   0.0000       1.090442        29.6724 
  65   0.0000       1.131733        30.7960 
  66   0.0000       1.142160        31.0797 
  67   0.0000       1.175295        31.9814 
  68   0.0000       1.180102        32.1122 
  69   0.0000       1.203873        32.7591 
  70   0.0000       1.218106        33.1463 
  71   0.0000       1.249128        33.9905 
  72   0.0000       1.269829        34.5538 
  73   0.0000       1.274295        34.6753 
  74   0.0000       1.301089        35.4044 
  75   0.0000       1.347092        36.6562 
  76   0.0000       1.357757        36.9464 
  77   0.0000       1.440218        39.1903 
  78   0.0000       1.457879        39.6709 
  79   0.0000       1.525753        41.5179 
  80   0.0000       1.541296        41.9408 
  81   0.0000       1.594377        43.3852 
  82   0.0000       1.736679        47.2574 
  83   0.0000       1.798975        48.9526 
  84   0.0000       1.823444        49.6184 
  85   0.0000       1.861693        50.6593 
  86   0.0000       1.865508        50.7631 
  87   0.0000       1.880113        51.1605 
  88   0.0000       2.016272        54.8655 
  89   0.0000       2.063147        56.1411 
  90   0.0000       2.102786        57.2197 
  91   0.0000       2.176239        59.2185 
  92   0.0000       2.177468        59.2519 
  93   0.0000       2.208417        60.0941 
  94   0.0000       2.252555        61.2951 
  95   0.0000       2.359457        64.2041 
  96   0.0000       2.361744        64.2663 
  97   0.0000       2.386868        64.9500 
  98   0.0000       2.410192        65.5847 
  99   0.0000       2.439335        66.3777 
 100   0.0000       2.506447        68.2039 
 101   0.0000       2.532225        68.9054 
 102   0.0000       2.599737        70.7425 
 103   0.0000       2.601634        70.7941 
 104   0.0000       2.614292        71.1385 
 105   0.0000       2.621387        71.3316 
 106   0.0000       2.706961        73.6602 
 107   0.0000       2.735477        74.4361 
 108   0.0000       2.774461        75.4969 
 109   0.0000       2.827539        76.9412 
 110   0.0000       2.828818        76.9760 
 111   0.0000       2.868152        78.0464 
 112   0.0000       2.876189        78.2651 
 113   0.0000       2.915267        79.3284 
 114   0.0000       2.922532        79.5261 
 115   0.0000       2.924106        79.5690 
 116   0.0000       2.943283        80.0908 
 117   0.0000       2.944010        80.1106 
 118   0.0000       2.971983        80.8718 
 119   0.0000       3.002503        81.7023 
 120   0.0000       3.041908        82.7745 
 121   0.0000       3.069714        83.5312 
 122   0.0000       3.095188        84.2244 
 123   0.0000       3.099681        84.3466 
 124   0.0000       3.124786        85.0298 
 125   0.0000       3.146767        85.6279 
 126   0.0000       3.156053        85.8806 
 127   0.0000       3.172669        86.3327 
 128   0.0000       3.186029        86.6963 
 129   0.0000       3.200671        87.0947 
 130   0.0000       3.254349        88.5553 
 131   0.0000       3.316005        90.2331 
 132   0.0000       3.319822        90.3369 
 133   0.0000       3.324666        90.4687 
 134   0.0000       3.358069        91.3777 
 135   0.0000       3.364335        91.5482 
 136   0.0000       3.449492        93.8654 
 137   0.0000       3.449970        93.8785 
 138   0.0000       3.523143        95.8696 
 139   0.0000       3.559383        96.8557 
 140   0.0000       3.578164        97.3668 
 141   0.0000       3.602830        98.0380 
 142   0.0000       3.607122        98.1548 
 143   0.0000       3.643132        99.1347 
 144   0.0000       3.675264       100.0090 
 145   0.0000       3.725183       101.3674 
 146   0.0000       3.742968       101.8513 
 147   0.0000       3.778557       102.8198 
 148   0.0000       3.786148       103.0263 
 149   0.0000       3.819867       103.9439 
 150   0.0000       3.844930       104.6259 
 151   0.0000       3.904340       106.2425 
 152   0.0000       3.920335       106.6777 
 153   0.0000       3.930434       106.9525 
 154   0.0000       3.993534       108.6696 
 155   0.0000       4.068000       110.6959 
 156   0.0000       4.089093       111.2699 
 157   0.0000       4.134218       112.4978 
 158   0.0000       4.154725       113.0558 
 159   0.0000       4.162365       113.2637 
 160   0.0000       4.257002       115.8389 
 161   0.0000       4.288040       116.6835 
 162   0.0000       4.298960       116.9806 
 163   0.0000       4.326920       117.7415 
 164   0.0000       4.378947       119.1572 
 165   0.0000       4.403518       119.8258 
 166   0.0000       4.420692       120.2931 
 167   0.0000       4.511187       122.7556 
 168   0.0000       4.603576       125.2697 
 169   0.0000       4.618302       125.6704 
 170   0.0000       4.644249       126.3764 
 171   0.0000       4.681297       127.3846 
 172   0.0000       4.746297       129.1533 
 173   0.0000       4.794900       130.4759 
 174   0.0000       4.835320       131.5757 
 175   0.0000       4.867530       132.4522 
 176   0.0000       4.945380       134.5706 
 177   0.0000       4.952907       134.7755 
 178   0.0000       4.987451       135.7155 
 179   0.0000       5.094123       138.6181 
 180   0.0000       5.113120       139.1351 
 181   0.0000       5.400928       146.9667 
 182   0.0000       5.419098       147.4611 
 183   0.0000       5.505286       149.8065 
 184   0.0000       5.551065       151.0522 
 185   0.0000       5.555552       151.1743 
 186   0.0000       5.649961       153.7433 
 187   0.0000       5.778401       157.2383 
 188   0.0000       5.815782       158.2555 
 189   0.0000       5.829657       158.6330 
 190   0.0000       5.944788       161.7659 
 191   0.0000       5.976900       162.6397 
 192   0.0000       6.352662       172.8647 
 193   0.0000       6.354663       172.9192 
 194   0.0000       6.506296       177.0453 
 195   0.0000       6.675692       181.6548 
 196   0.0000       6.794525       184.8884 
 197   0.0000       6.797144       184.9597 
 198   0.0000       6.920505       188.3165 
 199   0.0000       7.263440       197.6482 
 200   0.0000       7.331724       199.5064 
 201   0.0000       9.329978       253.8816 
 202   0.0000      11.199041       304.7414 
 203   0.0000      11.350667       308.8673 
 204   0.0000      12.812068       348.6341 
 205   0.0000      13.913256       378.5989 

                    ********************************
                    * MULLIKEN POPULATION ANALYSIS *
                    ********************************

-----------------------
MULLIKEN ATOMIC CHARGES
-----------------------
   0 C :   -0.027206
   1 O :   -0.157458
   2 C :   -0.010699
   3 C :   -0.176582
   4 C :   -0.166776
   5 H :    0.142477
   6 H :    0.126084
   7 H :    0.139070
   8 H :    0.131090
Sum of atomic charges:   -0.0000000

--------------------------------
MULLIKEN REDUCED ORBITAL CHARGES
--------------------------------
  0 C s       :     3.234422  s :     3.234422
      pz      :     1.038826  p :     2.662056
      px      :     0.933515
      py      :     0.689716
      dz2     :     0.006902  d :     0.116745
      dxz     :     0.011860
      dyz     :     0.031446
      dx2y2   :     0.041840
      dxy     :     0.024696
      f0      :     0.002058  f :     0.013983
      f+1     :     0.000863
      f-1     :     0.001146
      f+2     :     0.001422
      f-2     :     0.001555
      f+3     :     0.003857
      f-3     :     0.003083
  1 O s       :     3.701382  s :     3.701382
      pz      :     1.625485  p :     4.406696
      px      :     1.333702
      py      :     1.447509
      dz2     :     0.004247  d :     0.046752
      dxz     :     0.009241
      dyz     :     0.007514
      dx2y2   :     0.016053
      dxy     :     0.009697
      f0      :     0.000315  f :     0.002628
      f+1     :     0.000365
      f-1     :     0.000305
      f+2     :     0.000440
      f-2     :     0.000093
      f+3     :     0.000595
      f-3     :     0.000514
  2 C s       :     3.217739  s :     3.217739
      pz      :     1.038115  p :     2.662151
      px      :     0.679280
      py      :     0.944756
      dz2     :     0.006764  d :     0.116904
      dxz     :     0.028052
      dyz     :     0.015292
      dx2y2   :     0.035265
      dxy     :     0.031531
      f0      :     0.002058  f :     0.013905
      f+1     :     0.001196
      f-1     :     0.000777
      f+2     :     0.002687
      f-2     :     0.000269
      f+3     :     0.003113
      f-3     :     0.003805
  3 C s       :     3.259310  s :     3.259310
      pz      :     1.030437  p :     2.830989
      px      :     0.869289
      py      :     0.931263
      dz2     :     0.004028  d :     0.076795
      dxz     :     0.021634
      dyz     :     0.008007
      dx2y2   :     0.030582
      dxy     :     0.012544
      f0      :     0.001521  f :     0.009488
      f+1     :     0.000664
      f-1     :     0.000898
      f+2     :     0.000110
      f-2     :     0.001637
      f+3     :     0.002748
      f-3     :     0.001910
  4 C s       :     3.251894  s :     3.251894
      pz      :     1.028520  p :     2.830226
      px      :     0.922505
      py      :     0.879201
      dz2     :     0.004035  d :     0.075269
      dxz     :     0.009554
      dyz     :     0.020063
      dx2y2   :     0.023236
      dxy     :     0.018381
      f0      :     0.001512  f :     0.009387
      f+1     :     0.000884
      f-1     :     0.000667
      f+2     :     0.000754
      f-2     :     0.000970
      f+3     :     0.002387
      f-3     :     0.002212
  5 H s       :     0.827585  s :     0.827585
      pz      :     0.014187  p :     0.027716
      px      :     0.008199
      py      :     0.005329
      dz2     :     0.000157  d :     0.002222
      dxz     :     0.000796
      dyz     :     0.000014
      dx2y2   :     0.000452
      dxy     :     0.000803
  6 H s       :     0.843049  s :     0.843049
      pz      :     0.014002  p :     0.028676
      px      :     0.005187
      py      :     0.009488
      dz2     :     0.000159  d :     0.002190
      dxz     :     0.000115
      dyz     :     0.000675
      dx2y2   :     0.000575
      dxy     :     0.000666
  7 H s       :     0.829133  s :     0.829133
      pz      :     0.013646  p :     0.029406
      px      :     0.008819
      py      :     0.006942
      dz2     :     0.000166  d :     0.002391
      dxz     :     0.000015
      dyz     :     0.000786
      dx2y2   :     0.000397
      dxy     :     0.001027
  8 H s       :     0.837229  s :     0.837229
      pz      :     0.013535  p :     0.029347
      px      :     0.007700
      py      :     0.008112
      dz2     :     0.000162  d :     0.002335
      dxz     :     0.000684
      dyz     :     0.000099
      dx2y2   :     0.000617
      dxy     :     0.000773


                     *******************************
                     * LOEWDIN POPULATION ANALYSIS *
                     *******************************

----------------------
LOEWDIN ATOMIC CHARGES
----------------------
   0 C :   -0.120129
   1 O :    0.441300
   2 C :   -0.118602
   3 C :   -0.021829
   4 C :   -0.020961
   5 H :   -0.046149
   6 H :   -0.046949
   7 H :   -0.033080
   8 H :   -0.033602

-------------------------------
LOEWDIN REDUCED ORBITAL CHARGES
-------------------------------
  0 C s       :     2.739813  s :     2.739813
      pz      :     0.938681  p :     2.771097
      px      :     1.002754
      py      :     0.829662
      dz2     :     0.040615  d :     0.524962
      dxz     :     0.028814
      dyz     :     0.111549
      dx2y2   :     0.213201
      dxy     :     0.130783
      f0      :     0.004834  f :     0.084257
      f+1     :     0.004430
      f-1     :     0.008226
      f+2     :     0.008954
      f-2     :     0.010992
      f+3     :     0.024233
      f-3     :     0.022588
  1 O s       :     3.210016  s :     3.210016
      pz      :     1.475670  p :     4.218313
      px      :     1.324392
      py      :     1.418251
      dz2     :     0.009540  d :     0.122508
      dxz     :     0.024437
      dyz     :     0.016032
      dx2y2   :     0.040482
      dxy     :     0.032017
      f0      :     0.000449  f :     0.007863
      f+1     :     0.000539
      f-1     :     0.000424
      f+2     :     0.001850
      f-2     :     0.000225
      f+3     :     0.001707
      f-3     :     0.002668
  2 C s       :     2.739743  s :     2.739743
      pz      :     0.938536  p :     2.770080
      px      :     0.796641
      py      :     1.034904
      dz2     :     0.040538  d :     0.524552
      dxz     :     0.095093
      dyz     :     0.045302
      dx2y2   :     0.176670
      dxy     :     0.166948
      f0      :     0.004834  f :     0.084226
      f+1     :     0.008517
      f-1     :     0.004137
      f+2     :     0.017706
      f-2     :     0.002220
      f+3     :     0.019522
      f-3     :     0.027289
  3 C s       :     2.714548  s :     2.714548
      pz      :     0.902837  p :     2.871479
      px      :     0.987061
      py      :     0.981581
      dz2     :     0.028019  d :     0.388414
      dxz     :     0.083029
      dyz     :     0.021766
      dx2y2   :     0.140845
      dxy     :     0.114756
      f0      :     0.002365  f :     0.047387
      f+1     :     0.003403
      f-1     :     0.003865
      f+2     :     0.000807
      f-2     :     0.011494
      f+3     :     0.015829
      f-3     :     0.009625
  4 C s       :     2.714517  s :     2.714517
      pz      :     0.902252  p :     2.870565
      px      :     0.967976
      py      :     1.000337
      dz2     :     0.027955  d :     0.388516
      dxz     :     0.028582
      dyz     :     0.076338
      dx2y2   :     0.141848
      dxy     :     0.113793
      f0      :     0.002361  f :     0.047363
      f+1     :     0.003672
      f-1     :     0.003597
      f+2     :     0.005049
      f-2     :     0.007240
      f+3     :     0.014043
      f-3     :     0.011401
  5 H s       :     0.860725  s :     0.860725
      pz      :     0.050269  p :     0.157105
      px      :     0.081185
      py      :     0.025651
      dz2     :     0.002821  d :     0.028319
      dxz     :     0.009358
      dyz     :     0.000215
      dx2y2   :     0.008769
      dxy     :     0.007156
  6 H s       :     0.861508  s :     0.861508
      pz      :     0.050222  p :     0.157070
      px      :     0.034891
      py      :     0.071957
      dz2     :     0.002826  d :     0.028371
      dxz     :     0.001905
      dyz     :     0.007684
      dx2y2   :     0.007547
      dxy     :     0.008409
  7 H s       :     0.847797  s :     0.847797
      pz      :     0.046415  p :     0.157413
      px      :     0.034811
      py      :     0.076187
      dz2     :     0.002630  d :     0.027869
      dxz     :     0.000035
      dyz     :     0.008605
      dx2y2   :     0.008395
      dxy     :     0.008204
  8 H s       :     0.848480  s :     0.848480
      pz      :     0.046340  p :     0.157182
      px      :     0.073214
      py      :     0.037627
      dz2     :     0.002635  d :     0.027940
      dxz     :     0.007793
      dyz     :     0.000861
      dx2y2   :     0.008481
      dxy     :     0.008171


                      *****************************
                      * MAYER POPULATION ANALYSIS *
                      *****************************

  NA   - Mulliken gross atomic population
  ZA   - Total nuclear charge
  QA   - Mulliken gross atomic charge
  VA   - Mayer's total valence
  BVA  - Mayer's bonded valence
  FA   - Mayer's free valence

  ATOM       NA         ZA         QA         VA         BVA        FA
  0 C      6.0272     6.0000    -0.0272     3.8275     3.8275    -0.0000
  1 O      8.1575     8.0000    -0.1575     2.4227     2.4227    -0.0000
  2 C      6.0107     6.0000    -0.0107     3.8648     3.8648    -0.0000
  3 C      6.1766     6.0000    -0.1766     3.7752     3.7752     0.0000
  4 C      6.1668     6.0000    -0.1668     3.8096     3.8096     0.0000
  5 H      0.8575     1.0000     0.1425     0.9904     0.9904     0.0000
  6 H      0.8739     1.0000     0.1261     0.9951     0.9951    -0.0000
  7 H      0.8609     1.0000     0.1391     0.9879     0.9879     0.0000
  8 H      0.8689     1.0000     0.1311     0.9905     0.9905     0.0000

  Mayer bond orders larger than 0.100000
B(  0-C ,  1-O ) :   1.1512 B(  0-C ,  2-C ) :   0.1047 B(  0-C ,  3-C ) :   1.5744 
B(  0-C ,  5-H ) :   0.9664 B(  1-O ,  2-C ) :   1.1565 B(  2-C ,  4-C ) :   1.6057 
B(  2-C ,  6-H ) :   0.9680 B(  3-C ,  4-C ) :   1.1925 B(  3-C ,  7-H ) :   0.9583 
B(  4-C ,  8-H ) :   0.9580 

-------
TIMINGS
-------

Total SCF time: 0 days 0 hours 0 min 9 sec 

Total time                  ....       9.002 sec
Sum of individual times     ....       8.671 sec  ( 96.3%)

Fock matrix formation       ....       8.063 sec  ( 89.6%)
  XC integration            ....       0.253 sec  (  3.1% of F)
    Basis function eval.    ....       0.035 sec  ( 13.9% of XC)
    Density eval.           ....       0.079 sec  ( 31.2% of XC)
    XC-Functional eval.     ....       0.005 sec  (  1.8% of XC)
    XC-Potential eval.      ....       0.071 sec  ( 28.0% of XC)
Diagonalization             ....       0.071 sec  (  0.8%)
Density matrix formation    ....       0.054 sec  (  0.6%)
Population analysis         ....       0.015 sec  (  0.2%)
Initial guess               ....       0.126 sec  (  1.4%)
Orbital Transformation      ....       0.000 sec  (  0.0%)
Orbital Orthonormalization  ....       0.000 sec  (  0.0%)
DIIS solution               ....       0.031 sec  (  0.3%)
SOSCF solution              ....       0.127 sec  (  1.4%)
Grid generation             ....       0.184 sec  (  2.0%)

-------------------------   --------------------
FINAL SINGLE POINT ENERGY      -229.975036247782
-------------------------   --------------------



           ************************************************************
           *        Program running with 16 parallel MPI-processes    *
           *              working on a common directory               *
           ************************************************************
------------------------------------------------------------------------------
                         ORCA SCF GRADIENT CALCULATION
------------------------------------------------------------------------------

Gradient of the Kohn-Sham DFT energy:
Kohn-Sham wavefunction type      ... RKS
Hartree-Fock exchange scaling    ...    0.200
Number of operators              ...    1
Number of atoms                  ...    9
Basis set dimensions             ...  206
Integral neglect threshold       ... 2.5e-11
Integral primitive cutoff        ... 2.5e-12

Nuclear repulsion gradient       ... done
One Electron Gradient            ... done
Pre-screening matrix             ... done
Starting the two electron gradient:
Two electron gradient done
Exchange-correlation gradient    ... done

------------------
CARTESIAN GRADIENT
------------------

   1   C   :   -0.000031319   -0.004432274   -0.000000003
   2   O   :   -0.002797030   -0.003749393    0.000000039
   3   C   :   -0.004044749   -0.001448848   -0.000000052
   4   C   :    0.003516863    0.002113903   -0.000000029
   5   C   :    0.000847397    0.003979288    0.000000042
   6   H   :   -0.007542857    0.000655801    0.000000001
   7   H   :    0.003037789   -0.006907478   -0.000000005
   8   H   :   -0.000204740    0.007560961   -0.000000001
   9   H   :    0.007218647    0.002228041    0.000000007

Difference to translation invariance:
           :    0.0000000000    0.0000000000   -0.0000000000

Norm of the cartesian gradient     ...    0.0179422826
RMS gradient                       ...    0.0034529939
MAX gradient                       ...    0.0075609613

-------
TIMINGS
-------

Total SCF gradient time            ...        3.389 sec

One electron gradient       ....       0.014 sec  (  0.4%)
Prescreening matrices       ....       0.058 sec  (  1.7%)
Two electron gradient       ....       2.557 sec  ( 75.4%)
XC gradient                 ....       0.216 sec  (  6.4%)
------------------------------------------------------------------------------
                         ORCA GEOMETRY RELAXATION STEP
------------------------------------------------------------------------------

Reading the OPT-File                    .... done
Getting information on internals        .... done
Copying old internal coords+grads       .... done
Making the new internal coordinates     .... (new redundants).... done
Validating the new internal coordinates .... (new redundants).... done
Calculating the B-matrix                .... done
Calculating the G,G- and P matrices     .... done
Transforming gradient to internals      .... done
Projecting the internal gradient        .... done
Number of atoms                         ....   9
Number of internal coordinates          ....  38
Current Energy                          ....  -229.975036248 Eh
Current gradient norm                   ....     0.017942283 Eh/bohr
Maximum allowed component of the step   ....  0.300
Current trust radius                    ....  0.300
Evaluating the initial hessian          ....  (Almloef) done
Projecting the Hessian                  .... done
Forming the augmented Hessian           .... done
Diagonalizing the augmented Hessian     .... done
Last element of RFO vector              ....  0.998856363
Lowest eigenvalues of augmented Hessian:
 -0.000998819  0.023493974  0.026438329  0.027182919  0.030066955
Length of the computed step             ....  0.047866524
The final length of the internal step   ....  0.047866524
Converting the step to cartesian space:
 Initial RMS(Int)=    0.0077649755
Transforming coordinates:
 Iter   0:  RMS(Cart)=    0.0119624213 RMS(Int)=    2.6967387178
 Iter   1:  RMS(Cart)=    0.0000107830 RMS(Int)=    0.0000065230
 Iter   2:  RMS(Cart)=    0.0000000844 RMS(Int)=    0.0000000542
done
Storing new coordinates                 .... done

                                .--------------------.
          ----------------------|Geometry convergence|-------------------------
          Item                value                   Tolerance       Converged
          ---------------------------------------------------------------------
          RMS gradient        0.0035257229            0.0001000000      NO
          MAX gradient        0.0099134165            0.0003000000      NO
          RMS step            0.0077649755            0.0020000000      NO
          MAX step            0.0207648945            0.0040000000      NO
          ........................................................
          Max(Bonds)      0.0110      Max(Angles)    0.12
          Max(Dihed)        0.00      Max(Improp)    0.00
          ---------------------------------------------------------------------

The optimization has not yet converged - more geometry cycles are needed


    ---------------------------------------------------------------------------
                         Redundant Internal Coordinates
                            (Angstroem and degrees)

        Definition                    Value    dE/dq     Step     New-Value
    ----------------------------------------------------------------------------
     1. B(O   1,C   0)                1.3641  0.003090 -0.0026    1.3615   
     2. B(C   2,O   1)                1.3642  0.003190 -0.0026    1.3616   
     3. B(C   3,C   0)                1.3643  0.009913 -0.0077    1.3567   
     4. B(C   4,C   3)                1.4378  0.004770 -0.0049    1.4328   
     5. B(C   4,C   2)                1.3646  0.009874 -0.0076    1.3570   
     6. B(H   5,C   0)                1.0861  0.007561 -0.0109    1.0752   
     7. B(H   6,C   2)                1.0858  0.007536 -0.0109    1.0750   
     8. B(H   7,C   3)                1.0876  0.007564 -0.0110    1.0766   
     9. B(H   8,C   4)                1.0872  0.007554 -0.0110    1.0763   
    10. A(O   1,C   0,C   3)          110.58  0.000883   -0.12    110.46   
    11. A(O   1,C   0,H   5)          115.74 -0.000847    0.12    115.86   
    12. A(C   3,C   0,H   5)          133.68 -0.000035   -0.01    133.68   
    13. A(C   0,O   1,C   2)          106.83  0.000214    0.01    106.84   
    14. A(O   1,C   2,C   4)          110.56  0.000863   -0.11    110.45   
    15. A(O   1,C   2,H   6)          115.77 -0.000834    0.12    115.89   
    16. A(C   4,C   2,H   6)          133.67 -0.000029   -0.01    133.66   
    17. A(C   0,C   3,H   7)          126.46  0.000539   -0.06    126.40   
    18. A(C   0,C   3,C   4)          106.02 -0.000987    0.11    106.13   
    19. A(C   4,C   3,H   7)          127.52  0.000448   -0.05    127.47   
    20. A(C   3,C   4,H   8)          127.52  0.000445   -0.05    127.47   
    21. A(C   2,C   4,H   8)          126.46  0.000528   -0.06    126.40   
    22. A(C   2,C   4,C   3)          106.01 -0.000973    0.11    106.13   
    23. D(C   2,O   1,C   0,H   5)    180.00 -0.000000    0.00    180.00   
    24. D(C   2,O   1,C   0,C   3)     -0.00 -0.000000    0.00      0.00   
    25. D(C   4,C   2,O   1,C   0)      0.00  0.000000   -0.00     -0.00   
    26. D(H   6,C   2,O   1,C   0)   -180.00  0.000000   -0.00   -180.00   
    27. D(C   4,C   3,C   0,H   5)    180.00 -0.000000    0.00    180.00   
    28. D(C   4,C   3,C   0,O   1)     -0.00 -0.000000    0.00      0.00   
    29. D(H   7,C   3,C   0,O   1)   -180.00  0.000000   -0.00   -180.00   
    30. D(H   7,C   3,C   0,H   5)      0.00  0.000000   -0.00     -0.00   
    31. D(C   2,C   4,C   3,H   7)   -180.00  0.000000   -0.00   -180.00   
    32. D(C   2,C   4,C   3,C   0)      0.00  0.000000   -0.00     -0.00   
    33. D(H   8,C   4,C   2,H   6)      0.00  0.000000   -0.00     -0.00   
    34. D(H   8,C   4,C   2,O   1)    180.00 -0.000000    0.00    180.00   
    35. D(C   3,C   4,C   2,H   6)    180.00 -0.000000    0.00    180.00   
    36. D(H   8,C   4,C   3,C   0)   -180.00  0.000000   -0.00   -180.00   
    37. D(C   3,C   4,C   2,O   1)     -0.00 -0.000000    0.00      0.00   
    38. D(H   8,C   4,C   3,H   7)     -0.00 -0.000000    0.00      0.00   
    ----------------------------------------------------------------------------

         *************************************************************
         *                GEOMETRY OPTIMIZATION CYCLE   2            *
         *************************************************************
---------------------------------
CARTESIAN COORDINATES (ANGSTROEM)
---------------------------------
  C     -0.402774    1.313676   -0.000000
  O      0.011756    0.016768   -0.000000
  C      1.373180    0.037915    0.000000
  C      0.663577    2.152383    0.000000
  C      1.827420    1.316628   -0.000000
  H     -1.467156    1.465883   -0.000000
  H      1.857569   -0.921732    0.000000
  H      0.630033    3.228486    0.000000
  H      2.857495    1.628533   -0.000000

----------------------------
CARTESIAN COORDINATES (A.U.)
----------------------------
  NO LB      ZA    FRAG     MASS         X           Y           Z
   0 C     6.0000    0    12.011   -0.761132    2.482489   -0.000000
   1 O     8.0000    0    15.999    0.022215    0.031687   -0.000000
   2 C     6.0000    0    12.011    2.594934    0.071649    0.000000
   3 C     6.0000    0    12.011    1.253978    4.067414    0.000000
   4 C     6.0000    0    12.011    3.453324    2.488067   -0.000000
   5 H     1.0000    0     1.008   -2.772523    2.770118   -0.000000
   6 H     1.0000    0     1.008    3.510297   -1.741822    0.000000
   7 H     1.0000    0     1.008    1.190590    6.100954    0.000000
   8 H     1.0000    0     1.008    5.399883    3.077480   -0.000000

--------------------------------
INTERNAL COORDINATES (ANGSTROEM)
--------------------------------
 C      0   0   0     0.000000000000     0.00000000     0.00000000
 O      1   0   0     1.361545485812     0.00000000     0.00000000
 C      2   1   0     1.361588786479   106.83546853     0.00000000
 C      1   2   3     1.356661726307   110.46039471     0.00000000
 C      3   2   1     1.356996996311   110.44658548     0.00000000
 H      1   2   3     1.075209837071   115.86351077   180.00000739
 H      3   2   1     1.074968069049   115.89277579   179.99999525
 H      4   1   2     1.076625811741   126.40037384   180.00000000
 H      5   3   2     1.076261175150   126.40286805   180.00001090

---------------------------
INTERNAL COORDINATES (A.U.)
---------------------------
 C      0   0   0     0.000000000000     0.00000000     0.00000000
 O      1   0   0     2.572948087062     0.00000000     0.00000000
 C      2   1   0     2.573029913463   106.83546853     0.00000000
 C      1   2   3     2.563719119093   110.46039471     0.00000000
 C      3   2   1     2.564352687581   110.44658548     0.00000000
 H      1   2   3     2.031852128562   115.86351077   180.00000739
 H      3   2   1     2.031395253212   115.89277579   179.99999525
 H      4   1   2     2.034527932901   126.40037384   180.00000000
 H      5   3   2     2.033838869605   126.40286805   180.00001090



           ************************************************************
           *        Program running with 16 parallel MPI-processes    *
           *              working on a common directory               *
           ************************************************************


           ************************************************************
           *        Program running with 16 parallel MPI-processes    *
           *              working on a common directory               *
           ************************************************************

Diagonalization of the overlap matrix:
Smallest eigenvalue                        ... 1.202e-04
Time for diagonalization                   ...    0.009 sec
Threshold for overlap eigenvalues          ... 1.000e-08
Number of eigenvalues below threshold      ... 0
Time for construction of square roots      ...    0.010 sec
Total time needed                          ...    0.020 sec

-------------------
DFT GRID GENERATION
-------------------

General Integration Accuracy     IntAcc      ...  4.340
Radial Grid Type                 RadialGrid  ... Gauss-Chebyshev
Angular Grid (max. acc.)         AngularGrid ... Lebedev-110
Angular grid pruning method      GridPruning ... 3 (G Style)
Weight generation scheme         WeightScheme... Becke
Basis function cutoff            BFCut       ...    1.0000e-11
Integration weight cutoff        WCut        ...    1.0000e-14
Grids for H and He will be reduced by one unit

# of grid points (after initial pruning)     ...  11516 (   0.0 sec)
# of grid points (after weights+screening)   ...  10949 (   0.0 sec)
nearest neighbour list constructed           ...    0.0 sec
Grid point re-assignment to atoms done       ...    0.0 sec
Grid point division into batches done        ...    0.0 sec
Reduced shell lists constructed in    0.0 sec

Total number of grid points                  ...    10949
Total number of batches                      ...      177
Average number of points per batch           ...       61
Average number of grid points per atom       ...     1217
Average number of shells per batch           ...    64.69 (87.42%)
Average number of basis functions per batch  ...   180.38 (87.57%)
Average number of large shells per batch     ...    58.54 (90.49%)
Average number of large basis fcns per batch ...   162.23 (89.94%)
Maximum spatial batch extension              ...   2.94,  3.25, 19.48 au
Average spatial batch extension              ...   0.13,  0.14,  0.33 au

Time for grid setup =    0.020 sec

--------------
SCF ITERATIONS
--------------
ITER       Energy         Delta-E        Max-DP      RMS-DP      [F,P]     Damp
               ***  Starting incremental Fock matrix formation  ***
                      *** Initiating the SOSCF procedure ***
                      *** Re-Reading the Fockian *** 
                      *** Removing any level shift *** 
ITER      Energy       Delta-E        Grad      Rot      Max-DP    RMS-DP
  0   -229.97533631 -229.9753363140  0.001635  0.001635  0.002212  0.000073
               *** Restarting incremental Fock matrix formation ***
  1   -229.97543498  -0.0000986665  0.000633  0.002016  0.000993  0.000031
  2   -229.97542600   0.0000089811  0.001192  0.001519  0.000774  0.000019
  3   -229.97544399  -0.0000179893  0.000245  0.000511  0.000346  0.000011
  4   -229.97544332   0.0000006698  0.000300  0.000255  0.000205  0.000006
  5   -229.97544488  -0.0000015612  0.000017  0.000040  0.000020  0.000001
  6   -229.97544488   0.0000000042  0.000025  0.000027  0.000013  0.000000
                  ***Gradient check signals convergence***
              ***Rediagonalizing the Fockian in SOSCF/NRSCF***

               *****************************************************
               *                     SUCCESS                       *
               *           SCF CONVERGED AFTER   7 CYCLES          *
               *****************************************************

Setting up the final grid:

General Integration Accuracy     IntAcc      ...  4.670
Radial Grid Type                 RadialGrid  ... Gauss-Chebyshev
Angular Grid (max. acc.)         AngularGrid ... Lebedev-302
Angular grid pruning method      GridPruning ... 3 (G Style)
Weight generation scheme         WeightScheme... Becke
Basis function cutoff            BFCut       ...    1.0000e-11
Integration weight cutoff        WCut        ...    1.0000e-14
Grids for H and He will be reduced by one unit

# of grid points (after initial pruning)     ...  44636 (   0.0 sec)
# of grid points (after weights+screening)   ...  42049 (   0.0 sec)
nearest neighbour list constructed           ...    0.0 sec
Grid point re-assignment to atoms done       ...    0.0 sec
Grid point division into batches done        ...    0.1 sec
Reduced shell lists constructed in    0.1 sec

Total number of grid points                  ...    42049
Total number of batches                      ...      660
Average number of points per batch           ...       63
Average number of grid points per atom       ...     4672
Average number of shells per batch           ...    64.95 (87.77%)
Average number of basis functions per batch  ...   179.84 (87.30%)
Average number of large shells per batch     ...    56.37 (86.79%)
Average number of large basis fcns per batch ...   154.70 (86.02%)
Maximum spatial batch extension              ...   3.12,  3.57, 16.83 au
Average spatial batch extension              ...   0.09,  0.10,  0.14 au

Final grid set up in    0.2 sec
Final integration                            ... done (   0.1 sec)
Change in XC energy                          ...    -0.000131949
Integrated number of electrons               ...    35.999970463
Previous integrated no of electrons          ...    36.005071111
Total Energy       :         -229.97557683 Eh           -6257.95359 eV
  Last Energy change         ...   -7.6133e-09  Tolerance :   1.0000e-08
  Last MAX-Density change    ...    1.4074e-06  Tolerance :   1.0000e-07
             **** THE GBW FILE WAS UPDATED (furan_B3LYP_cc-pVTZ_OPT.gbw) ****
             **** DENSITY FILE WAS UPDATED (furan_B3LYP_cc-pVTZ_OPT.scfp) ****
             **** ENERGY FILE WAS UPDATED (furan_B3LYP_cc-pVTZ_OPT.en.tmp) ****
             **** THE GBW FILE WAS UPDATED (furan_B3LYP_cc-pVTZ_OPT.gbw) ****
             **** DENSITY FILE WAS UPDATED (furan_B3LYP_cc-pVTZ_OPT.scfp) ****
Total SCF time: 0 days 0 hours 0 min 6 sec 

-------------------------   --------------------
FINAL SINGLE POINT ENERGY      -229.975576832425
-------------------------   --------------------



           ************************************************************
           *        Program running with 16 parallel MPI-processes    *
           *              working on a common directory               *
           ************************************************************
------------------------------------------------------------------------------
                         ORCA SCF GRADIENT CALCULATION
------------------------------------------------------------------------------

Gradient of the Kohn-Sham DFT energy:
Kohn-Sham wavefunction type      ... RKS
Hartree-Fock exchange scaling    ...    0.200
Number of operators              ...    1
Number of atoms                  ...    9
Basis set dimensions             ...  206
Integral neglect threshold       ... 2.5e-11
Integral primitive cutoff        ... 2.5e-12

Nuclear repulsion gradient       ... done
One Electron Gradient            ... done
Pre-screening matrix             ... done
Starting the two electron gradient:
Two electron gradient done
Exchange-correlation gradient    ... done

------------------
CARTESIAN GRADIENT
------------------

   1   C   :   -0.001381983   -0.000862271   -0.000000003
   2   O   :   -0.000265529   -0.000284079   -0.000000031
   3   C   :   -0.000288035   -0.001598858    0.000000046
   4   C   :    0.000956875    0.001733455    0.000000029
   5   C   :    0.001317312    0.001470596   -0.000000042
   6   H   :   -0.000056630   -0.000241790   -0.000000001
   7   H   :   -0.000200626   -0.000125646    0.000000004
   8   H   :   -0.000095382   -0.000008084    0.000000004
   9   H   :    0.000013999   -0.000083323   -0.000000006

Difference to translation invariance:
           :    0.0000000000    0.0000000000   -0.0000000000

Norm of the cartesian gradient     ...    0.0036601031
RMS gradient                       ...    0.0007043872
MAX gradient                       ...    0.0017334551

-------
TIMINGS
-------

Total SCF gradient time            ...        3.206 sec

One electron gradient       ....       0.015 sec  (  0.5%)
Prescreening matrices       ....       0.054 sec  (  1.7%)
Two electron gradient       ....       2.734 sec  ( 85.3%)
XC gradient                 ....       0.224 sec  (  7.0%)
------------------------------------------------------------------------------
                         ORCA GEOMETRY RELAXATION STEP
------------------------------------------------------------------------------

Reading the OPT-File                    .... done
Getting information on internals        .... done
Copying old internal coords+grads       .... done
Making the new internal coordinates     .... (new redundants).... done
Validating the new internal coordinates .... (new redundants).... done
Calculating the B-matrix                .... done
Calculating the G,G- and P matrices     .... done
Transforming gradient to internals      .... done
Projecting the internal gradient        .... done
Number of atoms                         ....   9
Number of internal coordinates          ....  38
Current Energy                          ....  -229.975576832 Eh
Current gradient norm                   ....     0.003660103 Eh/bohr
Maximum allowed component of the step   ....  0.300
Current trust radius                    ....  0.300
Updating the Hessian (BFGS)             .... done
Forming the augmented Hessian           .... done
Diagonalizing the augmented Hessian     .... done
Last element of RFO vector              ....  0.999985943
Lowest eigenvalues of augmented Hessian:
 -0.000015492  0.023493974  0.026438329  0.027182919  0.030066955
Length of the computed step             ....  0.005302326
The final length of the internal step   ....  0.005302326
Converting the step to cartesian space:
 Initial RMS(Int)=    0.0008601509
Transforming coordinates:
 Iter   0:  RMS(Cart)=    0.0013663691 RMS(Int)=    2.8829231395
 Iter   1:  RMS(Cart)=    0.0000005061 RMS(Int)=    0.0000003667
 Iter   2:  RMS(Cart)=    0.0000000004 RMS(Int)=    0.0000000003
done
Storing new coordinates                 .... done

                                .--------------------.
          ----------------------|Geometry convergence|-------------------------
          Item                value                   Tolerance       Converged
          ---------------------------------------------------------------------
          Energy change      -0.0005405846            0.0000050000      NO
          RMS gradient        0.0004824690            0.0001000000      NO
          MAX gradient        0.0019565412            0.0003000000      NO
          RMS step            0.0008601509            0.0020000000      YES
          MAX step            0.0032349053            0.0040000000      YES
          ........................................................
          Max(Bonds)      0.0017      Max(Angles)    0.05
          Max(Dihed)        0.00      Max(Improp)    0.00
          ---------------------------------------------------------------------

The optimization has not yet converged - more geometry cycles are needed


    ---------------------------------------------------------------------------
                         Redundant Internal Coordinates
                            (Angstroem and degrees)

        Definition                    Value    dE/dq     Step     New-Value
    ----------------------------------------------------------------------------
     1. B(O   1,C   0)                1.3615  0.000172 -0.0002    1.3614   
     2. B(C   2,O   1)                1.3616  0.000231 -0.0002    1.3614   
     3. B(C   3,C   0)                1.3567  0.001956 -0.0017    1.3550   
     4. B(C   4,C   3)                1.4328  0.000748 -0.0009    1.4319   
     5. B(C   4,C   2)                1.3570  0.001957 -0.0017    1.3553   
     6. B(H   5,C   0)                1.0752  0.000022 -0.0001    1.0751   
     7. B(H   6,C   2)                1.0750  0.000022 -0.0001    1.0748   
     8. B(H   7,C   3)                1.0766 -0.000005 -0.0001    1.0765   
     9. B(H   8,C   4)                1.0763 -0.000011 -0.0001    1.0762   
    10. A(O   1,C   0,C   3)          110.46  0.000145   -0.02    110.44   
    11. A(O   1,C   0,H   5)          115.86 -0.000317    0.05    115.92   
    12. A(C   3,C   0,H   5)          133.68  0.000171   -0.03    133.64   
    13. A(C   0,O   1,C   2)          106.84  0.000213   -0.02    106.82   
    14. A(O   1,C   2,C   4)          110.45  0.000123   -0.02    110.43   
    15. A(O   1,C   2,H   6)          115.89 -0.000308    0.05    115.95   
    16. A(C   4,C   2,H   6)          133.66  0.000186   -0.03    133.63   
    17. A(C   0,C   3,H   7)          126.40  0.000032    0.00    126.40   
    18. A(C   0,C   3,C   4)          106.13 -0.000245    0.03    106.16   
    19. A(C   4,C   3,H   7)          127.47  0.000213   -0.03    127.44   
    20. A(C   3,C   4,H   8)          127.47  0.000210   -0.03    127.44   
    21. A(C   2,C   4,H   8)          126.40  0.000026    0.00    126.41   
    22. A(C   2,C   4,C   3)          106.13 -0.000236    0.03    106.15   
    23. D(C   2,O   1,C   0,H   5)   -180.00  0.000000   -0.00   -180.00   
    24. D(C   2,O   1,C   0,C   3)      0.00  0.000000   -0.00     -0.00   
    25. D(C   4,C   2,O   1,C   0)     -0.00 -0.000000    0.00      0.00   
    26. D(H   6,C   2,O   1,C   0)    180.00 -0.000000    0.00    180.00   
    27. D(C   4,C   3,C   0,H   5)   -180.00  0.000000   -0.00   -180.00   
    28. D(C   4,C   3,C   0,O   1)      0.00  0.000000   -0.00     -0.00   
    29. D(H   7,C   3,C   0,O   1)   -180.00 -0.000000   -0.00   -180.00   
    30. D(H   7,C   3,C   0,H   5)     -0.00 -0.000000    0.00      0.00   
    31. D(C   2,C   4,C   3,H   7)    180.00 -0.000000    0.00    180.00   
    32. D(C   2,C   4,C   3,C   0)     -0.00 -0.000000    0.00      0.00   
    33. D(H   8,C   4,C   2,H   6)     -0.00 -0.000000    0.00      0.00   
    34. D(H   8,C   4,C   2,O   1)   -180.00  0.000000   -0.00   -180.00   
    35. D(C   3,C   4,C   2,H   6)   -180.00  0.000000   -0.00   -180.00   
    36. D(H   8,C   4,C   3,C   0)    180.00 -0.000000    0.00    180.00   
    37. D(C   3,C   4,C   2,O   1)      0.00  0.000000   -0.00     -0.00   
    38. D(H   8,C   4,C   3,H   7)      0.00  0.000000   -0.00     -0.00   
    ----------------------------------------------------------------------------

         *************************************************************
         *                GEOMETRY OPTIMIZATION CYCLE   3            *
         *************************************************************
---------------------------------
CARTESIAN COORDINATES (ANGSTROEM)
---------------------------------
  C     -0.402260    1.313944    0.000000
  O      0.012036    0.017120    0.000000
  C      1.373248    0.038501   -0.000000
  C      0.663180    2.151045   -0.000000
  C      1.826287    1.315825    0.000000
  H     -1.466333    1.467280    0.000000
  H      1.858620   -0.920487   -0.000000
  H      0.630218    3.227062   -0.000000
  H      2.856105    1.628251    0.000000

----------------------------
CARTESIAN COORDINATES (A.U.)
----------------------------
  NO LB      ZA    FRAG     MASS         X           Y           Z
   0 C     6.0000    0    12.011   -0.760161    2.482993    0.000000
   1 O     8.0000    0    15.999    0.022744    0.032353    0.000000
   2 C     6.0000    0    12.011    2.595063    0.072757   -0.000000
   3 C     6.0000    0    12.011    1.253228    4.064886   -0.000000
   4 C     6.0000    0    12.011    3.451182    2.486548    0.000000
   5 H     1.0000    0     1.008   -2.770968    2.772757    0.000000
   6 H     1.0000    0     1.008    3.512283   -1.739469   -0.000000
   7 H     1.0000    0     1.008    1.190939    6.098263   -0.000000
   8 H     1.0000    0     1.008    5.397256    3.076948    0.000000

--------------------------------
INTERNAL COORDINATES (ANGSTROEM)
--------------------------------
 C      0   0   0     0.000000000000     0.00000000     0.00000000
 O      1   0   0     1.361393055857     0.00000000     0.00000000
 C      2   1   0     1.361380135715   106.81721289     0.00000000
 C      1   2   3     1.354954001593   110.43914266     0.00000000
 C      3   2   1     1.355285490551   110.42837186     0.00000000
 H      1   2   3     1.075064695903   115.91715910   179.99999286
 H      3   2   1     1.074823531105   115.94540266   180.00000610
 H      4   1   2     1.076521400379   126.40162618   179.99999852
 H      5   3   2     1.076167083841   126.40521186   179.99998683

---------------------------
INTERNAL COORDINATES (A.U.)
---------------------------
 C      0   0   0     0.000000000000     0.00000000     0.00000000
 O      1   0   0     2.572660036191     0.00000000     0.00000000
 C      2   1   0     2.572635620661   106.81721289     0.00000000
 C      1   2   3     2.560491987072   110.43914266     0.00000000
 C      3   2   1     2.561118410418   110.42837186     0.00000000
 H      1   2   3     2.031577851505   115.91715910   179.99999286
 H      3   2   1     2.031122116084   115.94540266   180.00000610
 H      4   1   2     2.034330624021   126.40162618   179.99999852
[...]
  76   0.0000       1.363137        37.0928 
  77   0.0000       1.446455        39.3600 
  78   0.0000       1.462443        39.7951 
  79   0.0000       1.534456        41.7547 
  80   0.0000       1.536777        41.8178 
  81   0.0000       1.603722        43.6395 
  82   0.0000       1.747301        47.5465 
  83   0.0000       1.802701        49.0540 
  84   0.0000       1.828769        49.7633 
  85   0.0000       1.865342        50.7585 
  86   0.0000       1.880065        51.1592 
  87   0.0000       1.881766        51.2054 
  88   0.0000       2.017861        54.9088 
  89   0.0000       2.064484        56.1775 
  90   0.0000       2.107798        57.3561 
  91   0.0000       2.180792        59.3424 
  92   0.0000       2.182416        59.3866 
  93   0.0000       2.212093        60.1941 
  94   0.0000       2.252633        61.2972 
  95   0.0000       2.364103        64.3305 
  96   0.0000       2.369495        64.4772 
  97   0.0000       2.384723        64.8916 
  98   0.0000       2.416730        65.7626 
  99   0.0000       2.446095        66.5616 
 100   0.0000       2.507702        68.2380 
 101   0.0000       2.536921        69.0331 
 102   0.0000       2.602842        70.8269 
 103   0.0000       2.605979        70.9123 
 104   0.0000       2.618357        71.2491 
 105   0.0000       2.621480        71.3341 
 106   0.0000       2.715353        73.8885 
 107   0.0000       2.739757        74.5526 
 108   0.0000       2.780366        75.6576 
 109   0.0000       2.830660        77.0262 
 110   0.0000       2.830889        77.0324 
 111   0.0000       2.875920        78.2578 
 112   0.0000       2.880905        78.3934 
 113   0.0000       2.918949        79.4286 
 114   0.0000       2.925316        79.6019 
 115   0.0000       2.925868        79.6169 
 116   0.0000       2.945610        80.1541 
 117   0.0000       2.953133        80.3588 
 118   0.0000       2.969349        80.8001 
 119   0.0000       3.001804        81.6832 
 120   0.0000       3.048389        82.9509 
 121   0.0000       3.069470        83.5245 
 122   0.0000       3.098405        84.3119 
 123   0.0000       3.099186        84.3331 
 124   0.0000       3.126722        85.0824 
 125   0.0000       3.151667        85.7612 
 126   0.0000       3.159421        85.9722 
 127   0.0000       3.174618        86.3857 
 128   0.0000       3.191630        86.8487 
 129   0.0000       3.202766        87.1517 
 130   0.0000       3.255510        88.5869 
 131   0.0000       3.319905        90.3392 
 132   0.0000       3.326959        90.5312 
 133   0.0000       3.330990        90.6408 
 134   0.0000       3.369583        91.6910 
 135   0.0000       3.378044        91.9213 
 136   0.0000       3.460995        94.1785 
 137   0.0000       3.468689        94.3878 
 138   0.0000       3.535333        96.2013 
 139   0.0000       3.571476        97.1848 
 140   0.0000       3.595059        97.8265 
 141   0.0000       3.617040        98.4247 
 142   0.0000       3.622024        98.5603 
 143   0.0000       3.657892        99.5363 
 144   0.0000       3.685791       100.2955 
 145   0.0000       3.741421       101.8092 
 146   0.0000       3.755361       102.1886 
 147   0.0000       3.794104       103.2428 
 148   0.0000       3.807708       103.6130 
 149   0.0000       3.830417       104.2310 
 150   0.0000       3.862551       105.1054 
 151   0.0000       3.916821       106.5821 
 152   0.0000       3.932615       107.0119 
 153   0.0000       3.940882       107.2368 
 154   0.0000       4.022100       109.4469 
 155   0.0000       4.083723       111.1237 
 156   0.0000       4.099098       111.5421 
 157   0.0000       4.158709       113.1642 
 158   0.0000       4.176954       113.6607 
 159   0.0000       4.182561       113.8133 
 160   0.0000       4.286371       116.6381 
 161   0.0000       4.314250       117.3967 
 162   0.0000       4.317489       117.4849 
 163   0.0000       4.351206       118.4023 
 164   0.0000       4.403059       119.8133 
 165   0.0000       4.425960       120.4365 
 166   0.0000       4.440341       120.8278 
 167   0.0000       4.534295       123.3844 
 168   0.0000       4.629976       125.9880 
 169   0.0000       4.644732       126.3896 
 170   0.0000       4.671087       127.1067 
 171   0.0000       4.709066       128.1402 
 172   0.0000       4.782886       130.1489 
 173   0.0000       4.814878       131.0195 
 174   0.0000       4.871408       132.5578 
 175   0.0000       4.892337       133.1273 
 176   0.0000       4.971981       135.2945 
 177   0.0000       4.986801       135.6978 
 178   0.0000       5.022679       136.6740 
 179   0.0000       5.120567       139.3377 
 180   0.0000       5.142999       139.9481 
 181   0.0000       5.417520       147.4182 
 182   0.0000       5.463694       148.6747 
 183   0.0000       5.522238       150.2677 
 184   0.0000       5.577145       151.7618 
 185   0.0000       5.584777       151.9695 
 186   0.0000       5.674706       154.4166 
 187   0.0000       5.787769       157.4932 
 188   0.0000       5.840424       158.9260 
 189   0.0000       5.851493       159.2272 
 190   0.0000       5.991707       163.0426 
 191   0.0000       6.007653       163.4766 
 192   0.0000       6.382620       173.6799 
 193   0.0000       6.383183       173.6952 
 194   0.0000       6.530890       177.7145 
 195   0.0000       6.680763       181.7928 
 196   0.0000       6.798107       184.9859 
 197   0.0000       6.802483       185.1050 
 198   0.0000       6.961351       189.4280 
 199   0.0000       7.273893       197.9327 
 200   0.0000       7.341543       199.7736 
 201   0.0000       9.437187       256.7989 
 202   0.0000      11.276554       306.8506 
 203   0.0000      11.544508       314.1420 
 204   0.0000      13.047191       355.0321 
 205   0.0000      14.148597       385.0029 

                    ********************************
                    * MULLIKEN POPULATION ANALYSIS *
                    ********************************

-----------------------
MULLIKEN ATOMIC CHARGES
-----------------------
   0 C :   -0.030982
   1 O :   -0.157662
   2 C :   -0.014053
   3 C :   -0.178162
   4 C :   -0.168591
   5 H :    0.145351
   6 H :    0.128609
   7 H :    0.141697
   8 H :    0.133792
Sum of atomic charges:    0.0000000

--------------------------------
MULLIKEN REDUCED ORBITAL CHARGES
--------------------------------
  0 C s       :     3.236097  s :     3.236097
      pz      :     1.037780  p :     2.663086
      px      :     0.934555
      py      :     0.690752
      dz2     :     0.006992  d :     0.117674
      dxz     :     0.012030
      dyz     :     0.031713
      dx2y2   :     0.042140
      dxy     :     0.024799
      f0      :     0.002084  f :     0.014124
      f+1     :     0.000841
      f-1     :     0.001137
      f+2     :     0.001444
      f-2     :     0.001576
      f+3     :     0.003952
      f-3     :     0.003090
  1 O s       :     3.699521  s :     3.699521
      pz      :     1.625818  p :     4.408519
      px      :     1.334264
      py      :     1.448437
      dz2     :     0.004239  d :     0.046970
      dxz     :     0.009282
      dyz     :     0.007552
      dx2y2   :     0.016124
      dxy     :     0.009772
      f0      :     0.000318  f :     0.002652
      f+1     :     0.000367
      f-1     :     0.000307
      f+2     :     0.000445
      f-2     :     0.000094
      f+3     :     0.000600
      f-3     :     0.000522
  2 C s       :     3.218086  s :     3.218086
      pz      :     1.036900  p :     2.664014
      px      :     0.680986
      py      :     0.946129
      dz2     :     0.006820  d :     0.117906
      dxz     :     0.028257
      dyz     :     0.015519
      dx2y2   :     0.035461
      dxy     :     0.031848
      f0      :     0.002085  f :     0.014047
      f+1     :     0.001191
      f-1     :     0.000753
      f+2     :     0.002727
      f-2     :     0.000272
      f+3     :     0.003134
      f-3     :     0.003885
  3 C s       :     3.260723  s :     3.260723
      pz      :     1.029771  p :     2.830533
      px      :     0.869066
      py      :     0.931697
      dz2     :     0.004038  d :     0.077228
      dxz     :     0.021979
      dyz     :     0.008059
      dx2y2   :     0.031085
      dxy     :     0.012066
      f0      :     0.001549  f :     0.009677
      f+1     :     0.000649
      f-1     :     0.000889
      f+2     :     0.000119
      f-2     :     0.001678
      f+3     :     0.002894
      f-3     :     0.001899
  4 C s       :     3.251961  s :     3.251961
      pz      :     1.027890  p :     2.831324
      px      :     0.923720
      py      :     0.879714
      dz2     :     0.004009  d :     0.075740
      dxz     :     0.009631
      dyz     :     0.020344
      dx2y2   :     0.023082
      dxy     :     0.018674
      f0      :     0.001539  f :     0.009566
      f+1     :     0.000877
      f-1     :     0.000651
      f+2     :     0.000778
      f-2     :     0.000991
      f+3     :     0.002453
      f-3     :     0.002277
  5 H s       :     0.824769  s :     0.824769
      pz      :     0.014453  p :     0.027625
      px      :     0.007618
      py      :     0.005554
      dz2     :     0.000146  d :     0.002254
      dxz     :     0.000822
      dyz     :     0.000015
      dx2y2   :     0.000412
      dxy     :     0.000859
  6 H s       :     0.840557  s :     0.840557
      pz      :     0.014278  p :     0.028612
      px      :     0.005273
      py      :     0.009061
      dz2     :     0.000148  d :     0.002223
      dxz     :     0.000120
      dyz     :     0.000698
      dx2y2   :     0.000593
      dxy     :     0.000665
  7 H s       :     0.826484  s :     0.826484
      pz      :     0.013930  p :     0.029383
      px      :     0.009115
      py      :     0.006338
      dz2     :     0.000155  d :     0.002436
      dxz     :     0.000017
      dyz     :     0.000817
      dx2y2   :     0.000358
      dxy     :     0.001090
  8 H s       :     0.834472  s :     0.834472
      pz      :     0.013814  p :     0.029359
      px      :     0.007239
      py      :     0.008305
      dz2     :     0.000152  d :     0.002377
      dxz     :     0.000708
      dyz     :     0.000105
      dx2y2   :     0.000614
      dxy     :     0.000798


                     *******************************
                     * LOEWDIN POPULATION ANALYSIS *
                     *******************************

----------------------
LOEWDIN ATOMIC CHARGES
----------------------
   0 C :   -0.117609
   1 O :    0.446741
   2 C :   -0.116207
   3 C :   -0.018443
   4 C :   -0.017582
   5 H :   -0.050574
   6 H :   -0.051358
   7 H :   -0.037223
   8 H :   -0.037744

-------------------------------
LOEWDIN REDUCED ORBITAL CHARGES
-------------------------------
  0 C s       :     2.733251  s :     2.733251
      pz      :     0.934704  p :     2.768719
      px      :     1.004811
      py      :     0.829203
      dz2     :     0.040973  d :     0.529780
      dxz     :     0.029401
      dyz     :     0.112575
      dx2y2   :     0.215403
      dxy     :     0.131428
      f0      :     0.004881  f :     0.085859
      f+1     :     0.004504
      f-1     :     0.008247
      f+2     :     0.009139
      f-2     :     0.011220
      f+3     :     0.024942
      f-3     :     0.022927
  1 O s       :     3.206043  s :     3.206043
      pz      :     1.474799  p :     4.216110
      px      :     1.323531
      py      :     1.417780
      dz2     :     0.009542  d :     0.123152
      dxz     :     0.024563
      dyz     :     0.016142
      dx2y2   :     0.040573
      dxy     :     0.032332
      f0      :     0.000458  f :     0.007953
      f+1     :     0.000540
      f-1     :     0.000425
      f+2     :     0.001870
      f-2     :     0.000227
      f+3     :     0.001719
      f-3     :     0.002714
  2 C s       :     2.733145  s :     2.733145
      pz      :     0.934438  p :     2.767683
      px      :     0.796345
      py      :     1.036900
      dz2     :     0.040901  d :     0.529515
      dxz     :     0.095828
      dyz     :     0.046239
      dx2y2   :     0.178070
      dxy     :     0.168478
      f0      :     0.004885  f :     0.085865
      f+1     :     0.008545
      f-1     :     0.004206
      f+2     :     0.018072
      f-2     :     0.002279
      f+3     :     0.019990
      f-3     :     0.027888
  3 C s       :     2.707733  s :     2.707733
      pz      :     0.899045  p :     2.868098
      px      :     0.986820
      py      :     0.982233
      dz2     :     0.028447  d :     0.393829
      dxz     :     0.084495
      dyz     :     0.022162
      dx2y2   :     0.143275
      dxy     :     0.115449
      f0      :     0.002426  f :     0.048784
      f+1     :     0.003430
      f-1     :     0.003926
      f+2     :     0.000853
      f-2     :     0.011806
      f+3     :     0.016432
      f-3     :     0.009911
  4 C s       :     2.707693  s :     2.707693
      pz      :     0.898515  p :     2.867212
      px      :     0.967804
      py      :     1.000893
      dz2     :     0.028383  d :     0.393921
      dxz     :     0.029044
      dyz     :     0.077715
      dx2y2   :     0.143472
      dxy     :     0.115306
      f0      :     0.002423  f :     0.048756
      f+1     :     0.003720
      f-1     :     0.003636
      f+2     :     0.005243
      f-2     :     0.007403
      f+3     :     0.014526
      f-3     :     0.011806
  5 H s       :     0.860794  s :     0.860794
      pz      :     0.051765  p :     0.160400
      px      :     0.081850
      py      :     0.026785
      dz2     :     0.002881  d :     0.029381
      dxz     :     0.009750
      dyz     :     0.000235
      dx2y2   :     0.008957
      dxy     :     0.007558
  6 H s       :     0.861594  s :     0.861594
      pz      :     0.051701  p :     0.160335
      px      :     0.036047
      py      :     0.072588
      dz2     :     0.002884  d :     0.029429
      dxz     :     0.002011
      dyz     :     0.007988
      dx2y2   :     0.007838
      dxy     :     0.008708
  7 H s       :     0.847300  s :     0.847300
      pz      :     0.047867  p :     0.160958
      px      :     0.036219
      py      :     0.076872
      dz2     :     0.002685  d :     0.028965
      dxz     :     0.000039
      dyz     :     0.008977
      dx2y2   :     0.008583
      dxy     :     0.008681
  8 H s       :     0.848000  s :     0.848000
      pz      :     0.047786  p :     0.160712
      px      :     0.073899
      py      :     0.039027
      dz2     :     0.002689  d :     0.029032
      dxz     :     0.008115
      dyz     :     0.000915
      dx2y2   :     0.008759
      dxy     :     0.008555


                      *****************************
                      * MAYER POPULATION ANALYSIS *
                      *****************************

  NA   - Mulliken gross atomic population
  ZA   - Total nuclear charge
  QA   - Mulliken gross atomic charge
  VA   - Mayer's total valence
  BVA  - Mayer's bonded valence
  FA   - Mayer's free valence

  ATOM       NA         ZA         QA         VA         BVA        FA
  0 C      6.0310     6.0000    -0.0310     3.8255     3.8255    -0.0000
  1 O      8.1577     8.0000    -0.1577     2.4211     2.4211    -0.0000
  2 C      6.0141     6.0000    -0.0141     3.8647     3.8647    -0.0000
  3 C      6.1782     6.0000    -0.1782     3.7684     3.7684     0.0000
  4 C      6.1686     6.0000    -0.1686     3.8038     3.8038     0.0000
  5 H      0.8546     1.0000     0.1454     0.9894     0.9894     0.0000
  6 H      0.8714     1.0000     0.1286     0.9945     0.9945     0.0000
  7 H      0.8583     1.0000     0.1417     0.9866     0.9866    -0.0000
  8 H      0.8662     1.0000     0.1338     0.9893     0.9893     0.0000

  Mayer bond orders larger than 0.100000
B(  0-C ,  1-O ) :   1.1504 B(  0-C ,  2-C ) :   0.1036 B(  0-C ,  3-C ) :   1.5752 
B(  0-C ,  5-H ) :   0.9665 B(  1-O ,  2-C ) :   1.1564 B(  2-C ,  4-C ) :   1.6076 
B(  2-C ,  6-H ) :   0.9682 B(  3-C ,  4-C ) :   1.1870 B(  3-C ,  7-H ) :   0.9581 
B(  4-C ,  8-H ) :   0.9577 

-------
TIMINGS
-------

Total SCF time: 0 days 0 hours 0 min 4 sec 

Total time                  ....       4.412 sec
Sum of individual times     ....       4.115 sec  ( 93.3%)

Fock matrix formation       ....       3.668 sec  ( 83.1%)
  XC integration            ....       0.178 sec  (  4.9% of F)
    Basis function eval.    ....       0.020 sec  ( 11.5% of XC)
    Density eval.           ....       0.044 sec  ( 24.8% of XC)
    XC-Functional eval.     ....       0.003 sec  (  1.4% of XC)
    XC-Potential eval.      ....       0.037 sec  ( 20.8% of XC)
Diagonalization             ....       0.014 sec  (  0.3%)
Density matrix formation    ....       0.114 sec  (  2.6%)
Population analysis         ....       0.013 sec  (  0.3%)
Initial guess               ....       0.018 sec  (  0.4%)
Orbital Transformation      ....       0.000 sec  (  0.0%)
Orbital Orthonormalization  ....       0.014 sec  (  0.3%)
DIIS solution               ....       0.007 sec  (  0.2%)
SOSCF solution              ....       0.098 sec  (  2.2%)
Grid generation             ....       0.183 sec  (  4.1%)

-------------------------   --------------------
FINAL SINGLE POINT ENERGY      -229.975585377529
-------------------------   --------------------

                                *** OPTIMIZATION RUN DONE ***

                            ***************************************
                            *     ORCA property calculations      *
                            ***************************************

                                    ---------------------
                                    Active property flags
                                    ---------------------
   (+) Dipole Moment


------------------------------------------------------------------------------
                       ORCA ELECTRIC PROPERTIES CALCULATION
------------------------------------------------------------------------------

Dipole Moment Calculation                       ... on
Quadrupole Moment Calculation                   ... off
Polarizability Calculation                      ... off
GBWName                                         ... furan_B3LYP_cc-pVTZ_OPT.gbw
Electron density file                           ... furan_B3LYP_cc-pVTZ_OPT.scfp
The origin for moment calculation is the CENTER OF MASS  = ( 1.267463,  1.765344 -0.000000)

-------------
DIPOLE MOMENT
-------------
                                X             Y             Z
Electronic contribution:     -0.97115      -1.36009      -0.00000
Nuclear contribution   :      1.11263       1.54961       0.00000
                        -----------------------------------------
Total Dipole Moment    :      0.14148       0.18951       0.00000
                        -----------------------------------------
Magnitude (a.u.)       :      0.23650
Magnitude (Debye)      :      0.60112



--------------------
Rotational spectrum 
--------------------
 
Rotational constants in cm-1:     0.316601     0.310894     0.156861 
Rotational constants in MHz :  9491.451983  9320.358423  4702.563577 

 Dipole components along the rotational axes: 
x,y,z [a.u.] :     0.236446     0.004869     0.000000 
x,y,z [Debye]:     0.600997     0.012377     0.000000 

 

Timings for individual modules:

Sum of individual times         ...       38.417 sec (=   0.640 min)
GTO integral calculation        ...        2.533 sec (=   0.042 min)   6.6 %
SCF iterations                  ...       25.253 sec (=   0.421 min)  65.7 %
SCF Gradient evaluation         ...       10.547 sec (=   0.176 min)  27.5 %
Geometry relaxation             ...        0.084 sec (=   0.001 min)   0.2 %
                             ****ORCA TERMINATED NORMALLY****
TOTAL RUN TIME: 0 days 0 hours 0 minutes 38 seconds 778 msec
