
                                 *****************
                                 * O   R   C   A *
                                 *****************

           --- An Ab Initio, DFT and Semiempirical electronic structure package ---

                  #######################################################
                  #                        -***-                        #
                  #          Department of theory and spectroscopy      #
                  #               Directorship: Frank Neese             #
                  #        Max Planck Institute fuer Kohlenforschung    #
                  #                Kaiser Wilhelm Platz 1               #
                  #                 D-45470 Muelheim/Ruhr               #
                  #                      Germany                        #
                  #                                                     #
                  #                  All rights reserved                #
                  #                        -***-                        #
                  #######################################################


                         Program Version 4.2.1 -  RELEASE  -


 With contributions from (in alphabetic order):
   Daniel Aravena         : Magnetic Suceptibility
   Michael Atanasov       : Ab Initio Ligand Field Theory (pilot matlab implementation)
   Alexander A. Auer      : GIAO ZORA, VPT2
   Ute Becker             : Parallelization
   Giovanni Bistoni       : ED, misc. LED, open-shell LED, HFLD
   Martin Brehm           : Molecular dynamics
   Dmytro Bykov           : SCF Hessian
   Vijay G. Chilkuri      : MRCI spin determinant printing, contributions to CSF-ICE
   Dipayan Datta          : RHF DLPNO-CCSD density
   Achintya Kumar Dutta   : EOM-CC, STEOM-CC
   Dmitry Ganyushin       : Spin-Orbit,Spin-Spin,Magnetic field MRCI
   Miquel Garcia          : C-PCM Hessian, Gaussian charge scheme
   Yang Guo               : DLPNO-NEVPT2, CIM, IAO-localization
   Andreas Hansen         : Spin unrestricted coupled pair/coupled cluster methods
   Benjamin Helmich-Paris : CASSCF linear response (MC-RPA)
   Lee Huntington         : MR-EOM, pCC
   Robert Izsak           : Overlap fitted RIJCOSX, COSX-SCS-MP3, EOM
   Christian Kollmar      : KDIIS, OOCD, Brueckner-CCSD(T), CCSD density
   Simone Kossmann        : Meta GGA functionals, TD-DFT gradient, OOMP2, MP2 Hessian
   Martin Krupicka        : AUTO-CI
   Lucas Lang             : DCDCAS
   Dagmar Lenk            : GEPOL surface, SMD
   Dimitrios Liakos       : Extrapolation schemes; Compound Job, initial MDCI parallelization
   Dimitrios Manganas     : Further ROCIS development; embedding schemes
   Dimitrios Pantazis     : SARC Basis sets
   Taras Petrenko         : DFT Hessian,TD-DFT gradient, ASA, ECA, R-Raman, ABS, FL, XAS/XES, NRVS
   Peter Pinski           : DLPNO-MP2, DLPNO-MP2 Gradient
   Christoph Reimann      : Effective Core Potentials
   Marius Retegan         : Local ZFS, SOC
   Christoph Riplinger    : Optimizer, TS searches, QM/MM, DLPNO-CCSD(T), (RO)-DLPNO pert. Triples
   Tobias Risthaus        : Range-separated hybrids, TD-DFT gradient, RPA, STAB
   Michael Roemelt        : Original ROCIS implementation
   Masaaki Saitow         : Open-shell DLPNO-CCSD energy and density
   Barbara Sandhoefer     : DKH picture change effects
   Avijit Sen             : IP-ROCIS
   Kantharuban Sivalingam : CASSCF convergence, NEVPT2, FIC-MRCI
   Bernardo de Souza      : ESD, SOC TD-DFT
   Georgi Stoychev        : AutoAux, RI-MP2 NMR
   Willem Van den Heuvel  : Paramagnetic NMR
   Boris Wezisla          : Elementary symmetry handling
   Frank Wennmohs         : Technical directorship


 We gratefully acknowledge several colleagues who have allowed us to
 interface, adapt or use parts of their codes:
   Stefan Grimme, W. Hujo, H. Kruse,             : VdW corrections, initial TS optimization,
                  C. Bannwarth                     DFT functionals, gCP, sTDA/sTD-DF
   Ed Valeev, F. Pavosevic, A. Kumar             : LibInt (2-el integral package), F12 methods
   Garnet Chan, S. Sharma, J. Yang, R. Olivares  : DMRG
   Ulf Ekstrom                                   : XCFun DFT Library
   Mihaly Kallay                                 : mrcc  (arbitrary order and MRCC methods)
   Andreas Klamt, Michael Diedenhofen            : otool_cosmo (COSMO solvation model)
   Jiri Pittner, Ondrej Demel                    : Mk-CCSD
   Frank Weinhold                                : gennbo (NPA and NBO analysis)
   Christopher J. Cramer and Donald G. Truhlar   : smd solvation model
   Lars Goerigk                                  : TD-DFT with DH, B97 family of functionals
   V. Asgeirsson, H. Jonsson                     : NEB implementation
   FAccTs GmbH                                   : IRC, NEB, NEB-TS, Multilevel, MM, QM/MM, CI optimization
   S Lehtola, MJT Oliveira, MAL Marques          : LibXC Library


 Your calculation uses the libint2 library for the computation of 2-el integrals
 For citations please refer to: http://libint.valeyev.net

 Your ORCA version has been built with support for libXC version: 4.2.3
 For citations please refer to: https://tddft.org/programs/libxc/

 This ORCA versions uses:
   CBLAS   interface :  Fast vector & matrix operations
   LAPACKE interface :  Fast linear algebra routines
   SCALAPACK package :  Parallel linear algebra routines




***************************************
The coordinates will be read from file: acetaldehyde_MP2_aug-cc-pVTZ_OPT.xyz
***************************************


----- Orbital basis set information -----
Your calculation utilizes the basis: aug-cc-pVTZ 
    H, B-Ne : Obtained from the ccRepo (grant-hill.group.shef.ac.uk/ccrepo) Feb. 2017
              R. A. Kendall, T. H. Dunning, Jr., R. J. Harrison, J. Chem. Phys. 96, 6796 (1992)
         He : Obtained from the ccRepo (grant-hill.group.shef.ac.uk/ccrepo) Feb. 2017
              D. E. Woon, T. H. Dunning, Jr., J. Chem. Phys. 100, 2975 (1994)
  Li-Be, Na : Obtained from the ccRepo (grant-hill.group.shef.ac.uk/ccrepo) Feb. 2017
              B. P. Prascher, D. E. Woon, K. A. Peterson, T. H. Dunning, Jr., A. K. Wilson, Theor. Chem. Acc. 128, 69 (2011)
         Mg : Obtained from the Peterson Research Group Website (tyr0.chem.wsu.edu/~kipeters) Feb. 2017
              B. P. Prascher, D. E. Woon, K. A. Peterson, T. H. Dunning, Jr., A. K. Wilson, Theor. Chem. Acc. 128, 69 (2011)
      Al-Ar : Obtained from the ccRepo (grant-hill.group.shef.ac.uk/ccrepo) Feb. 2017
              D. E. Woon, T. H. Dunning, Jr., J. Chem. Phys. 98, 1358 (1993)
      Sc-Zn : Obtained from the ccRepo (grant-hill.group.shef.ac.uk/ccrepo) Feb. 2017
              N. B. Balabanov, K. A. Peterson, J. Chem. Phys. 123, 064107 (2005)
              N. B. Balabanov, K. A. Peterson, J. Chem. Phys. 125, 074110 (2006)
      Ga-Kr : Obtained from the ccRepo (grant-hill.group.shef.ac.uk/ccrepo) Feb. 2017
              A. K. Wilson, D. E. Woon, K. A. Peterson, T. H. Dunning, Jr., J. Chem. Phys. 110, 7667 (1999)
     Ag, Au : Obtained from the Peterson Research Group Website (tyr0.chem.wsu.edu/~kipeters) Feb. 2017
              K. A. Peterson, C. Puzzarini, Theor. Chem. Acc. 114, 283 (2005)

================================================================================
                                        WARNINGS
                       Please study these warnings very carefully!
================================================================================


WARNING: MDCI localization with Augmented Hessian Foster-Boys
  ===> : Switching off randomization!

WARNING: Post HF methods need fully converged wavefunctions
  ===> : Setting SCFConvForced true
         You can overwrite this default with %scf ConvForced false 


INFO   : the flag for use of LIBINT has been found!

================================================================================
                                       INPUT FILE
================================================================================
NAME = acetaldehyde_CCSD_aug-cc-pVTZ_SPE.inp
|  1> # acetaldehyde CCSD/aug-cc-pVTZ SPE
|  2> 
|  3> ! CCSD aug-cc-pVTZ TightSCF PAL16
|  4> %maxcore 1000
|  5> 
|  6> * xyzfile 0 1 acetaldehyde_MP2_aug-cc-pVTZ_OPT.xyz
|  7> 
|  8> 
|  9>                          ****END OF INPUT****
================================================================================

                       ****************************
                       * Single Point Calculation *
                       ****************************

---------------------------------
CARTESIAN COORDINATES (ANGSTROEM)
---------------------------------
  C      1.446461   -0.023258   -0.257387
  C     -0.036315    0.028216   -0.052843
  O     -0.733133    0.988959   -0.314435
  H      1.809508    0.913145   -0.670530
  H      1.934230   -0.230113    0.696431
  H      1.689184   -0.850886   -0.925647
  H     -0.492685   -0.887683    0.365130

----------------------------
CARTESIAN COORDINATES (A.U.)
----------------------------
  NO LB      ZA    FRAG     MASS         X           Y           Z
   0 C     6.0000    0    12.011    2.733416   -0.043952   -0.486391
   1 C     6.0000    0    12.011   -0.068626    0.053321   -0.099860
   2 O     8.0000    0    15.999   -1.385420    1.868863   -0.594195
   3 H     1.0000    0     1.008    3.419474    1.725594   -1.267117
   4 H     1.0000    0     1.008    3.655165   -0.434851    1.316064
   5 H     1.0000    0     1.008    3.192095   -1.607942   -1.749219
   6 H     1.0000    0     1.008   -0.931040   -1.677477    0.689996

--------------------------------
INTERNAL COORDINATES (ANGSTROEM)
--------------------------------
 C      0   0   0     0.000000000000     0.00000000     0.00000000
 C      1   0   0     1.497703125894     0.00000000     0.00000000
 O      2   1   0     1.215323963230   124.43135876     0.00000000
 H      1   2   3     1.085974380188   110.68894405   359.96919883
 H      1   2   3     1.091089744619   109.25169101   121.59208187
 H      1   2   3     1.091079005009   109.26640398   238.32941025
 H      2   1   3     1.105371533205   115.58913919   179.95440405

---------------------------
INTERNAL COORDINATES (A.U.)
---------------------------
 C      0   0   0     0.000000000000     0.00000000     0.00000000
 C      1   0   0     2.830248737858     0.00000000     0.00000000
 O      2   1   0     2.296629454497   124.43135876     0.00000000
 H      1   2   3     2.052194167011   110.68894405   359.96919883
 H      1   2   3     2.061860804860   109.25169101   121.59208187
 H      1   2   3     2.061840509939   109.26640398   238.32941025
 H      2   1   3     2.088849473989   115.58913919   179.95440405

---------------------
BASIS SET INFORMATION
---------------------
There are 3 groups of distinct atoms

 Group   1 Type C   : 19s6p3d2f contracted to 5s4p3d2f pattern {88111/3111/111/11}
 Group   2 Type O   : 19s6p3d2f contracted to 5s4p3d2f pattern {88111/3111/111/11}
 Group   3 Type H   : 6s3p2d contracted to 4s3p2d pattern {3111/111/11}

Atom   0C    basis set group =>   1
Atom   1C    basis set group =>   1
Atom   2O    basis set group =>   2
Atom   3H    basis set group =>   3
Atom   4H    basis set group =>   3
Atom   5H    basis set group =>   3
Atom   6H    basis set group =>   3


           ************************************************************
           *        Program running with 16 parallel MPI-processes    *
           *              working on a common directory               *
           ************************************************************
------------------------------------------------------------------------------
                           ORCA GTO INTEGRAL CALCULATION
------------------------------------------------------------------------------

                         BASIS SET STATISTICS AND STARTUP INFO

 # of primitive gaussian shells          ...  134
 # of primitive gaussian functions       ...  298
 # of contracted shells                  ...   78
 # of contracted basis functions         ...  230
 Highest angular momentum                ...    3
 Maximum contraction depth               ...    8
 Integral package used                   ... LIBINT
 Integral threshhold            Thresh   ...  2.500e-11
 Primitive cut-off              TCut     ...  2.500e-12


------------------------------ INTEGRAL EVALUATION ----------------------------


 * One electron integrals 
 Pre-screening matrix                    ... done
 Shell pair data                         ... done (   0.001 sec)



           ************************************************************
           *        Program running with 16 parallel MPI-processes    *
           *              working on a common directory               *
           ************************************************************
-------------------------------------------------------------------------------
                                 ORCA SCF
-------------------------------------------------------------------------------

------------
SCF SETTINGS
------------
Hamiltonian:
 Ab initio Hamiltonian  Method          .... Hartree-Fock(GTOs)


General Settings:
 Integral files         IntName         .... acetaldehyde_CCSD_aug-cc-pVTZ_SPE
 Hartree-Fock type      HFTyp           .... RHF
 Total Charge           Charge          ....    0
 Multiplicity           Mult            ....    1
 Number of Electrons    NEL             ....   24
 Basis Dimension        Dim             ....  230
 Nuclear Repulsion      ENuc            ....     69.6776513787 Eh

Convergence Acceleration:
 DIIS                   CNVDIIS         .... on
   Start iteration      DIISMaxIt       ....    12
   Startup error        DIISStart       ....  0.200000
   # of expansion vecs  DIISMaxEq       ....     5
   Bias factor          DIISBfac        ....   1.050
   Max. coefficient     DIISMaxC        ....  10.000
 Newton-Raphson         CNVNR           .... off
 SOSCF                  CNVSOSCF        .... on
   Start iteration      SOSCFMaxIt      ....   150
   Startup grad/error   SOSCFStart      ....  0.003300
 Level Shifting         CNVShift        .... on
   Level shift para.    LevelShift      ....    0.2500
   Turn off err/grad.   ShiftErr        ....    0.0010
 Zerner damping         CNVZerner       .... off
 Static damping         CNVDamp         .... on
   Fraction old density DampFac         ....    0.7000
   Max. Damping (<1)    DampMax         ....    0.9800
   Min. Damping (>=0)   DampMin         ....    0.0000
   Turn off err/grad.   DampErr         ....    0.1000
 Fernandez-Rico         CNVRico         .... off

SCF Procedure:
 Maximum # iterations   MaxIter         ....   125
 SCF integral mode      SCFMode         .... Direct
   Integral package                     .... LIBINT
 Reset frequency        DirectResetFreq ....    20
 Integral Threshold     Thresh          ....  2.500e-11 Eh
 Primitive CutOff       TCut            ....  2.500e-12 Eh

Convergence Tolerance:
 Convergence Check Mode ConvCheckMode   .... Total+1el-Energy
 Convergence forced     ConvForced      .... 1
 Energy Change          TolE            ....  1.000e-08 Eh
 1-El. energy change                    ....  1.000e-05 Eh
 Orbital Gradient       TolG            ....  1.000e-05
 Orbital Rotation angle TolX            ....  1.000e-05
 DIIS Error             TolErr          ....  5.000e-07


Diagonalization of the overlap matrix:
Smallest eigenvalue                        ... 2.989e-05
Time for diagonalization                   ...    0.010 sec
Threshold for overlap eigenvalues          ... 1.000e-08
Number of eigenvalues below threshold      ... 0
Time for construction of square roots      ...    0.015 sec
Total time needed                          ...    0.025 sec

-------------------
DFT GRID GENERATION
-------------------

General Integration Accuracy     IntAcc      ...  4.340
Radial Grid Type                 RadialGrid  ... Gauss-Chebyshev
Angular Grid (max. acc.)         AngularGrid ... Lebedev-110
Angular grid pruning method      GridPruning ... 3 (G Style)
Weight generation scheme         WeightScheme... Becke
Basis function cutoff            BFCut       ...    1.0000e-11
Integration weight cutoff        WCut        ...    1.0000e-14
Grids for H and He will be reduced by one unit

# of grid points (after initial pruning)     ...   8204 (   0.0 sec)
# of grid points (after weights+screening)   ...   7931 (   0.0 sec)
nearest neighbour list constructed           ...    0.0 sec
Grid point re-assignment to atoms done       ...    0.0 sec
Grid point division into batches done        ...    0.0 sec
Reduced shell lists constructed in    0.0 sec

Total number of grid points                  ...     7931
Total number of batches                      ...      126
Average number of points per batch           ...       62
Average number of grid points per atom       ...     1133
Average number of shells per batch           ...    68.44 (87.75%)
Average number of basis functions per batch  ...   200.89 (87.34%)
Average number of large shells per batch     ...    65.44 (95.62%)
Average number of large basis fcns per batch ...   192.56 (95.85%)
Maximum spatial batch extension              ...   1.90,  2.02,  2.14 au
Average spatial batch extension              ...   0.10,  0.10,  0.10 au

Time for grid setup =    0.015 sec

------------------------------
INITIAL GUESS: MODEL POTENTIAL
------------------------------
Loading Hartree-Fock densities                     ... done
Calculating cut-offs                               ... done
Setting up the integral package                    ... done
Initializing the effective Hamiltonian             ... done
Starting the Coulomb interaction                   ... done (   0.0 sec)
Reading the grid                                   ... done
Mapping shells                                     ... done
Starting the XC term evaluation                    ... done (   0.0 sec)
Transforming the Hamiltonian                       ... done (   0.0 sec)
Diagonalizing the Hamiltonian                      ... done (   0.0 sec)
Back transforming the eigenvectors                 ... done (   0.0 sec)
Now organizing SCF variables                       ... done
                      ------------------
                      INITIAL GUESS DONE (   0.2 sec)
                      ------------------
--------------
SCF ITERATIONS
--------------
ITER       Energy         Delta-E        Max-DP      RMS-DP      [F,P]     Damp
               ***  Starting incremental Fock matrix formation  ***
  0   -152.8110712364   0.000000000000 0.02757960  0.00068956  0.3130381 0.7000
  1   -152.8700358147  -0.058964578357 0.02011587  0.00052113  0.1896038 0.7000
                               ***Turning on DIIS***
  2   -152.9045818846  -0.034546069892 0.01483438  0.00035713  0.1097783 0.7000
  3   -153.2458776310  -0.341295746433 0.03797968  0.00087855  0.0826446 0.0000
  4   -152.9482819163   0.297595714762 0.01035343  0.00013791  0.0081879 0.0000
  5   -152.9776473920  -0.029365475766 0.00259555  0.00005407  0.0042242 0.0000
                      *** Initiating the SOSCF procedure ***
                           *** Shutting down DIIS ***
                      *** Re-Reading the Fockian *** 
                      *** Removing any level shift *** 
ITER      Energy       Delta-E        Grad      Rot      Max-DP    RMS-DP
  6   -152.97566264   0.0019847484  0.001714  0.001714  0.001281  0.000026
               *** Restarting incremental Fock matrix formation ***
  7   -152.97629993  -0.0006372851  0.000517  0.000805  0.000730  0.000015
  8   -152.97630597  -0.0000060456  0.000433  0.001414  0.000698  0.000016
  9   -152.97630820  -0.0000022251  0.000140  0.000181  0.000192  0.000004
 10   -152.97630850  -0.0000003019  0.000044  0.000059  0.000066  0.000001
 11   -152.97630852  -0.0000000233  0.000013  0.000030  0.000024  0.000000
                  ***Gradient check signals convergence***
              ***Rediagonalizing the Fockian in SOSCF/NRSCF***

               *****************************************************
               *                     SUCCESS                       *
               *           SCF CONVERGED AFTER  12 CYCLES          *
               *****************************************************


----------------
TOTAL SCF ENERGY
----------------

Total Energy       :         -152.97630853 Eh           -4162.69698 eV

Components:
Nuclear Repulsion  :           69.67765138 Eh            1896.02529 eV
Electronic Energy  :         -222.65395991 Eh           -6058.72227 eV
One Electron Energy:         -345.78716404 Eh           -9409.34710 eV
Two Electron Energy:          123.13320413 Eh            3350.62483 eV

Virial components:
Potential Energy   :         -305.69661045 Eh           -8318.42767 eV
Kinetic Energy     :          152.72030192 Eh            4155.73069 eV
Virial Ratio       :            2.00167631


---------------
SCF CONVERGENCE
---------------

  Last Energy change         ...   -3.6537e-09  Tolerance :   1.0000e-08
  Last MAX-Density change    ...    6.9981e-06  Tolerance :   1.0000e-07
  Last RMS-Density change    ...    1.2660e-07  Tolerance :   5.0000e-09
  Last Orbital Gradient      ...    1.3539e-06  Tolerance :   1.0000e-05
  Last Orbital Rotation      ...    3.6330e-06  Tolerance :   1.0000e-05

             **** THE GBW FILE WAS UPDATED (acetaldehyde_CCSD_aug-cc-pVTZ_SPE.gbw) ****
             **** DENSITY FILE WAS UPDATED (acetaldehyde_CCSD_aug-cc-pVTZ_SPE.scfp) ****
             **** ENERGY FILE WAS UPDATED (acetaldehyde_CCSD_aug-cc-pVTZ_SPE.en.tmp) ****
             **** THE GBW FILE WAS UPDATED (acetaldehyde_CCSD_aug-cc-pVTZ_SPE.gbw) ****
             **** DENSITY FILE WAS UPDATED (acetaldehyde_CCSD_aug-cc-pVTZ_SPE.scfp) ****
----------------
ORBITAL ENERGIES
----------------

  NO   OCC          E(Eh)            E(eV) 
   0   2.0000     -20.560290      -559.4739 
   1   2.0000     -11.337474      -308.5083 
   2   2.0000     -11.242708      -305.9296 
   3   2.0000      -1.390457       -37.8363 
   4   2.0000      -1.024962       -27.8906 
   5   2.0000      -0.803800       -21.8725 
   6   2.0000      -0.675166       -18.3722 
   7   2.0000      -0.624263       -16.9871 
   8   2.0000      -0.606710       -16.5094 
   9   2.0000      -0.563403       -15.3310 
  10   2.0000      -0.502984       -13.6869 
  11   2.0000      -0.428193       -11.6517 
  12   0.0000       0.026181         0.7124 
  13   0.0000       0.038507         1.0478 
  14   0.0000       0.042203         1.1484 
  15   0.0000       0.053201         1.4477 
  16   0.0000       0.088627         2.4117 
  17   0.0000       0.092899         2.5279 
  18   0.0000       0.098205         2.6723 
  19   0.0000       0.120440         3.2773 
  20   0.0000       0.127810         3.4779 
  21   0.0000       0.128644         3.5006 
  22   0.0000       0.133618         3.6359 
  23   0.0000       0.139548         3.7973 
  24   0.0000       0.177213         4.8222 
  25   0.0000       0.193504         5.2655 
  26   0.0000       0.202957         5.5228 
  27   0.0000       0.221839         6.0365 
  28   0.0000       0.236279         6.4295 
  29   0.0000       0.238207         6.4819 
  30   0.0000       0.267638         7.2828 
  31   0.0000       0.278976         7.5913 
  32   0.0000       0.279136         7.5957 
  33   0.0000       0.295086         8.0297 
  34   0.0000       0.309758         8.4289 
  35   0.0000       0.325455         8.8561 
  36   0.0000       0.335825         9.1383 
  37   0.0000       0.338162         9.2019 
  38   0.0000       0.350819         9.5463 
  39   0.0000       0.361039         9.8244 
  40   0.0000       0.380872        10.3641 
  41   0.0000       0.389810        10.6073 
  42   0.0000       0.408946        11.1280 
  43   0.0000       0.414395        11.2763 
  44   0.0000       0.416518        11.3340 
  45   0.0000       0.431368        11.7381 
  46   0.0000       0.437044        11.8926 
  47   0.0000       0.438649        11.9362 
  48   0.0000       0.451665        12.2904 
  49   0.0000       0.474521        12.9124 
  50   0.0000       0.487490        13.2653 
  51   0.0000       0.521374        14.1873 
  52   0.0000       0.534894        14.5552 
  53   0.0000       0.539156        14.6712 
  54   0.0000       0.573271        15.5995 
  55   0.0000       0.581608        15.8264 
  56   0.0000       0.625510        17.0210 
  57   0.0000       0.674669        18.3587 
  58   0.0000       0.687463        18.7068 
  59   0.0000       0.722117        19.6498 
  60   0.0000       0.735374        20.0105 
  61   0.0000       0.756197        20.5772 
  62   0.0000       0.793030        21.5794 
  63   0.0000       0.801403        21.8073 
  64   0.0000       0.819947        22.3119 
  65   0.0000       0.825576        22.4651 
  66   0.0000       0.849971        23.1289 
  67   0.0000       0.861939        23.4546 
  68   0.0000       0.868748        23.6398 
  69   0.0000       0.877880        23.8883 
  70   0.0000       0.896563        24.3967 
  71   0.0000       0.903603        24.5883 
  72   0.0000       0.924138        25.1471 
  73   0.0000       0.948259        25.8034 
  74   0.0000       0.953491        25.9458 
  75   0.0000       0.954469        25.9724 
  76   0.0000       0.960226        26.1291 
  77   0.0000       0.978381        26.6231 
  78   0.0000       0.988717        26.9044 
  79   0.0000       1.014785        27.6137 
  80   0.0000       1.033508        28.1232 
  81   0.0000       1.044266        28.4159 
  82   0.0000       1.065381        28.9905 
  83   0.0000       1.066008        29.0075 
  84   0.0000       1.090507        29.6742 
  85   0.0000       1.109915        30.2023 
  86   0.0000       1.112126        30.2625 
  87   0.0000       1.132902        30.8278 
  88   0.0000       1.180155        32.1137 
  89   0.0000       1.188022        32.3277 
  90   0.0000       1.203209        32.7410 
  91   0.0000       1.203921        32.7603 
  92   0.0000       1.242383        33.8070 
  93   0.0000       1.269174        34.5360 
  94   0.0000       1.271354        34.5953 
  95   0.0000       1.284519        34.9535 
  96   0.0000       1.326307        36.0906 
  97   0.0000       1.353131        36.8206 
  98   0.0000       1.391075        37.8531 
  99   0.0000       1.417542        38.5733 
 100   0.0000       1.452970        39.5373 
 101   0.0000       1.465852        39.8878 
 102   0.0000       1.508880        41.0587 
 103   0.0000       1.522032        41.4166 
 104   0.0000       1.552818        42.2543 
 105   0.0000       1.575527        42.8723 
 106   0.0000       1.610374        43.8205 
 107   0.0000       1.639544        44.6143 
 108   0.0000       1.654041        45.0088 
 109   0.0000       1.667545        45.3762 
 110   0.0000       1.686004        45.8785 
 111   0.0000       1.690549        46.0022 
 112   0.0000       1.741124        47.3784 
 113   0.0000       1.744998        47.4838 
 114   0.0000       1.760327        47.9009 
 115   0.0000       1.777167        48.3592 
 116   0.0000       1.807586        49.1869 
 117   0.0000       1.859718        50.6055 
 118   0.0000       1.876737        51.0686 
 119   0.0000       1.882451        51.2241 
 120   0.0000       1.970616        53.6232 
 121   0.0000       1.974516        53.7293 
 122   0.0000       2.014285        54.8115 
 123   0.0000       2.073959        56.4353 
 124   0.0000       2.095882        57.0319 
 125   0.0000       2.145773        58.3895 
 126   0.0000       2.178011        59.2667 
 127   0.0000       2.207606        60.0720 
 128   0.0000       2.229521        60.6684 
 129   0.0000       2.243479        61.0482 
 130   0.0000       2.293938        62.4212 
 131   0.0000       2.360479        64.2319 
 132   0.0000       2.363516        64.3146 
 133   0.0000       2.455375        66.8142 
 134   0.0000       2.480990        67.5112 
 135   0.0000       2.483249        67.5726 
 136   0.0000       2.574059        70.0437 
 137   0.0000       2.587068        70.3977 
 138   0.0000       2.641214        71.8711 
 139   0.0000       2.729885        74.2840 
 140   0.0000       2.763246        75.1918 
 141   0.0000       2.825093        76.8747 
 142   0.0000       2.909162        79.1623 
 143   0.0000       2.911811        79.2344 
 144   0.0000       2.958155        80.4955 
 145   0.0000       3.037235        82.6474 
 146   0.0000       3.143976        85.5519 
 147   0.0000       3.186661        86.7135 
 148   0.0000       3.221240        87.6544 
 149   0.0000       3.326453        90.5174 
 150   0.0000       3.346180        91.0542 
 151   0.0000       3.380488        91.9877 
 152   0.0000       3.413925        92.8976 
 153   0.0000       3.485760        94.8523 
 154   0.0000       3.488546        94.9282 
 155   0.0000       3.500306        95.2482 
 156   0.0000       3.567534        97.0775 
 157   0.0000       3.581979        97.4706 
 158   0.0000       3.596145        97.8561 
 159   0.0000       3.599464        97.9464 
 160   0.0000       3.657753        99.5325 
 161   0.0000       3.695716       100.5655 
 162   0.0000       3.820051       103.9489 
 163   0.0000       3.853400       104.8563 
 164   0.0000       3.855964       104.9261 
 165   0.0000       3.865984       105.1988 
 166   0.0000       3.933111       107.0254 
 167   0.0000       3.937112       107.1343 
 168   0.0000       4.005489       108.9949 
 169   0.0000       4.005767       109.0025 
 170   0.0000       4.073019       110.8325 
 171   0.0000       4.081959       111.0758 
 172   0.0000       4.092593       111.3651 
 173   0.0000       4.128324       112.3374 
 174   0.0000       4.194451       114.1368 
 175   0.0000       4.201216       114.3209 
 176   0.0000       4.252804       115.7247 
 177   0.0000       4.305542       117.1597 
 178   0.0000       4.318438       117.5107 
 179   0.0000       4.325081       117.6914 
 180   0.0000       4.475304       121.7792 
 181   0.0000       4.478358       121.8623 
 182   0.0000       4.573590       124.4537 
 183   0.0000       4.600883       125.1964 
 184   0.0000       4.680841       127.3722 
 185   0.0000       4.739930       128.9801 
 186   0.0000       4.756764       129.4381 
 187   0.0000       4.809375       130.8697 
 188   0.0000       4.824389       131.2783 
 189   0.0000       4.879409       132.7755 
 190   0.0000       4.888802       133.0311 
 191   0.0000       4.903500       133.4310 
 192   0.0000       4.991501       135.8257 
 193   0.0000       5.064116       137.8016 
 194   0.0000       5.084125       138.3461 
 195   0.0000       5.095164       138.6465 
 196   0.0000       5.214192       141.8854 
 197   0.0000       5.223460       142.1376 
 198   0.0000       5.271213       143.4370 
 199   0.0000       5.328147       144.9862 
 200   0.0000       5.362260       145.9145 
 201   0.0000       5.502989       149.7440 
 202   0.0000       5.519972       150.2061 
 203   0.0000       5.635149       153.3402 
 204   0.0000       5.661197       154.0490 
 205   0.0000       5.678301       154.5144 
 206   0.0000       5.849916       159.1843 
 207   0.0000       5.950699       161.9268 
 208   0.0000       6.052686       164.7020 
 209   0.0000       6.099624       165.9792 
 210   0.0000       6.190297       168.4466 
 211   0.0000       6.278663       170.8511 
 212   0.0000       6.394576       174.0052 
 213   0.0000       6.629248       180.3910 
 214   0.0000       6.654702       181.0836 
 215   0.0000       6.675248       181.6427 
 216   0.0000       6.691211       182.0771 
 217   0.0000       6.969112       189.6392 
 218   0.0000       7.005214       190.6216 
 219   0.0000       7.183147       195.4634 
 220   0.0000       7.285401       198.2459 
 221   0.0000       7.316245       199.0852 
 222   0.0000       7.502964       204.1660 
 223   0.0000       7.592298       206.5969 
 224   0.0000       7.634892       207.7560 
 225   0.0000       7.784861       211.8368 
 226   0.0000       7.856010       213.7729 
 227   0.0000      15.134176       411.8219 
 228   0.0000      16.672218       453.6741 
 229   0.0000      18.148934       493.8576 

                    ********************************
                    * MULLIKEN POPULATION ANALYSIS *
                    ********************************

-----------------------
MULLIKEN ATOMIC CHARGES
-----------------------
   0 C :   -0.693784
   1 C :   -0.082944
   2 O :   -0.628405
   3 H :    0.319470
   4 H :    0.294695
   5 H :    0.294740
   6 H :    0.496227
Sum of atomic charges:   -0.0000000

--------------------------------
MULLIKEN REDUCED ORBITAL CHARGES
--------------------------------
  0 C s       :     3.128566  s :     3.128566
      pz      :     1.221284  p :     3.425949
      px      :     0.931979
      py      :     1.272686
      dz2     :     0.024989  d :     0.133273
      dxz     :     0.029636
      dyz     :     0.043492
      dx2y2   :     0.028566
      dxy     :     0.006590
      f0      :     0.000526  f :     0.005996
      f+1     :    -0.001135
      f-1     :     0.000080
      f+2     :     0.003061
      f-2     :     0.000896
      f+3     :     0.002725
      f-3     :    -0.000157
  1 C s       :     3.490146  s :     3.490146
      pz      :     0.646822  p :     2.390308
      px      :     0.881709
      py      :     0.861777
      dz2     :     0.004954  d :     0.167802
      dxz     :     0.025775
      dyz     :     0.035036
      dx2y2   :     0.097930
      dxy     :     0.004108
      f0      :     0.001836  f :     0.034688
      f+1     :     0.002164
      f-1     :     0.001819
      f+2     :     0.005007
      f-2     :     0.004029
      f+3     :     0.004886
      f-3     :     0.014947
  2 O s       :     3.973640  s :     3.973640
      pz      :     1.414368  p :     4.601201
      px      :     1.709282
      py      :     1.477551
      dz2     :     0.003920  d :     0.048949
      dxz     :     0.008069
      dyz     :     0.012618
      dx2y2   :     0.014489
      dxy     :     0.009853
      f0      :     0.000340  f :     0.004615
      f+1     :     0.000300
      f-1     :     0.000361
      f+2     :     0.000239
      f-2     :     0.001133
      f+3     :     0.000909
      f-3     :     0.001333
  3 H s       :     0.629418  s :     0.629418
      pz      :     0.016344  p :     0.046037
      px      :     0.016661
      py      :     0.013032
      dz2     :     0.001100  d :     0.005074
      dxz     :     0.000245
      dyz     :     0.001102
      dx2y2   :     0.001257
      dxy     :     0.001370
  4 H s       :     0.650096  s :     0.650096
      pz      :     0.016661  p :     0.048941
      px      :     0.013406
      py      :     0.018873
      dz2     :     0.001434  d :     0.006269
      dxz     :    -0.000288
      dyz     :     0.002959
      dx2y2   :     0.001748
      dxy     :     0.000416
  5 H s       :     0.650064  s :     0.650064
      pz      :     0.018056  p :     0.048927
      px      :     0.010518
      py      :     0.020353
      dz2     :     0.002788  d :     0.006269
      dxz     :     0.000522
      dyz     :    -0.001030
      dx2y2   :     0.002297
      dxy     :     0.001693
  6 H s       :     0.518919  s :     0.518919
      pz      :    -0.006665  p :    -0.014565
      px      :     0.012845
      py      :    -0.020745
      dz2     :    -0.000802  d :    -0.000581
      dxz     :     0.000461
      dyz     :    -0.001512
      dx2y2   :    -0.001388
      dxy     :     0.002660


                     *******************************
                     * LOEWDIN POPULATION ANALYSIS *
                     *******************************

----------------------
LOEWDIN ATOMIC CHARGES
----------------------
   0 C :    0.564111
   1 C :   -0.231482
   2 O :    0.415211
   3 H :   -0.187684
   4 H :   -0.185185
   5 H :   -0.185182
   6 H :   -0.189790

-------------------------------
LOEWDIN REDUCED ORBITAL CHARGES
-------------------------------
  0 C s       :     2.474961  s :     2.474961
      pz      :     0.769775  p :     2.301637
      px      :     0.751859
      py      :     0.780002
      dz2     :     0.070908  d :     0.483882
      dxz     :     0.100783
      dyz     :     0.079492
      dx2y2   :     0.129087
      dxy     :     0.103612
      f0      :     0.019362  f :     0.175410
      f+1     :     0.026072
      f-1     :     0.006904
      f+2     :     0.028092
      f-2     :     0.014000
      f+3     :     0.029078
      f-3     :     0.051902
  1 C s       :     2.540105  s :     2.540105
      pz      :     0.521086  p :     2.173512
      px      :     0.834679
      py      :     0.817747
      dz2     :     0.076667  d :     1.037268
      dxz     :     0.168518
      dyz     :     0.137168
      dx2y2   :     0.347735
      dxy     :     0.307180
      f0      :     0.040932  f :     0.480596
      f+1     :     0.031946
      f-1     :     0.030646
      f+2     :     0.057683
      f-2     :     0.060681
      f+3     :     0.092157
      f-3     :     0.166552
  2 O s       :     3.228747  s :     3.228747
      pz      :     1.180798  p :     4.071598
      px      :     1.477107
      py      :     1.413692
      dz2     :     0.022487  d :     0.212616
      dxz     :     0.013518
      dyz     :     0.033869
      dx2y2   :     0.083306
      dxy     :     0.059436
      f0      :     0.005163  f :     0.071829
      f+1     :     0.005066
      f-1     :     0.005872
      f+2     :     0.005652
      f-2     :     0.009096
      f+3     :     0.014299
      f-3     :     0.026681
  3 H s       :     0.647119  s :     0.647119
      pz      :     0.092628  p :     0.310378
      px      :     0.083308
      py      :     0.134442
      dz2     :     0.036771  d :     0.230186
      dxz     :     0.016849
      dyz     :     0.060811
      dx2y2   :     0.066561
      dxy     :     0.049194
  4 H s       :     0.642988  s :     0.642988
      pz      :     0.136151  p :     0.313654
      px      :     0.089232
      py      :     0.088271
      dz2     :     0.066319  d :     0.228543
      dxz     :     0.045590
      dyz     :     0.073546
      dx2y2   :     0.030998
      dxy     :     0.012089
  5 H s       :     0.643006  s :     0.643006
      pz      :     0.111056  p :     0.313645
      px      :     0.080808
      py      :     0.121780
      dz2     :     0.065590  d :     0.228531
      dxz     :     0.030187
      dyz     :     0.040854
      dx2y2   :     0.052680
      dxy     :     0.039221
  6 H s       :     0.714179  s :     0.714179
      pz      :     0.064648  p :     0.273500
      px      :     0.082643
      py      :     0.126209
      dz2     :     0.028884  d :     0.202112
      dxz     :     0.017448
      dyz     :     0.049322
      dx2y2   :     0.057604
      dxy     :     0.048854


                      *****************************
                      * MAYER POPULATION ANALYSIS *
                      *****************************

  NA   - Mulliken gross atomic population
  ZA   - Total nuclear charge
  QA   - Mulliken gross atomic charge
  VA   - Mayer's total valence
  BVA  - Mayer's bonded valence
  FA   - Mayer's free valence

  ATOM       NA         ZA         QA         VA         BVA        FA
  0 C      6.6938     6.0000    -0.6938     3.6379     3.6379    -0.0000
  1 C      6.0829     6.0000    -0.0829     3.2886     3.2886    -0.0000
  2 O      8.6284     8.0000    -0.6284     1.6709     1.6709     0.0000
  3 H      0.6805     1.0000     0.3195     0.9969     0.9969     0.0000
  4 H      0.7053     1.0000     0.2947     1.0099     1.0099    -0.0000
  5 H      0.7053     1.0000     0.2947     1.0098     1.0098    -0.0000
  6 H      0.5038     1.0000     0.4962     0.6777     0.6777    -0.0000

  Mayer bond orders larger than 0.100000
B(  0-C ,  1-C ) :   0.8871 B(  0-C ,  3-H ) :   0.9027 B(  0-C ,  4-H ) :   0.9149 
B(  0-C ,  5-H ) :   0.9149 B(  1-C ,  2-O ) :   1.6791 B(  1-C ,  6-H ) :   0.6767 


-------
TIMINGS
-------

Total SCF time: 0 days 0 hours 0 min 11 sec 

Total time                  ....      11.377 sec
Sum of individual times     ....      11.013 sec  ( 96.8%)

Fock matrix formation       ....      10.355 sec  ( 91.0%)
Diagonalization             ....       0.124 sec  (  1.1%)
Density matrix formation    ....       0.095 sec  (  0.8%)
Population analysis         ....       0.015 sec  (  0.1%)
Initial guess               ....       0.141 sec  (  1.2%)
Orbital Transformation      ....       0.000 sec  (  0.0%)
Orbital Orthonormalization  ....       0.000 sec  (  0.0%)
DIIS solution               ....       0.070 sec  (  0.6%)
SOSCF solution              ....       0.199 sec  (  1.7%)


           ************************************************************
           *        Program running with 16 parallel MPI-processes    *
           *              working on a common directory               *
           ************************************************************


------------------------------------------------------------------------------- 
                              ORCA-MATRIX DRIVEN CI                            
------------------------------------------------------------------------------- 

--------------------------------
AUTOMATIC CHOICE OF INCORE LEVEL
--------------------------------

Memory available                           ...    500.00 MB
Memory needed for S+T                      ...     48.95 MB
Memory needed for J+K                      ...     98.05 MB
Memory needed for DIIS                     ...    685.27 MB
Memory needed for 3-ext                    ...    711.38 MB
Memory needed for 4-ext                    ...   8655.13 MB
Memory needed for triples                  ...      0.00 MB
 -> Final InCoreLevel    ... 2

Wavefunction type
-----------------
Correlation treatment                      ...      CCSD     
Single excitations                         ... ON
Orbital optimization                       ... OFF
Calculation of Z vector                    ... OFF
Calculation of Brueckner orbitals          ... OFF
Perturbative triple excitations            ... OFF
Calculation of F12 correction              ... OFF
Frozen core treatment                      ... chemical core (6 el)
Reference Wavefunction                     ... RHF
  Internal Orbitals:     3 ...   11 (  9 MO's/ 18 electrons)
  Virtual  Orbitals:    12 ...  229 (218 MO's              )
Number of AO's                             ...    230
Number of electrons                        ...     24
Number of correlated electrons             ...     18

Algorithmic settings
--------------------
Integral transformation                    ... AO direct full transformation
K(C) Formation                             ... FULL-MO TRAFO
Maximum number of iterations               ...        50
Convergence tolerance (max. residuum)      ... 1.000e-05
Level shift for amplitude update           ... 2.000e-01
Maximum number of DIIS vectors             ...         7
DIIS turned on at iteration                ...         0
Damping before turning on DIIS             ...     0.500
Damping after turning on DIIS              ...     0.000
Pair specific amplitude update             ... OFF
Natural orbital iterations                 ... OFF
Perturbative natural orbital generation    ... OFF
Printlevel                                 ... 2

Memory handling:
----------------
Maximum memory for working arrays          ...    500 MB
Data storage in matrix containers          ... UNCOMPRESSED
Data type for integral storage             ... DOUBLE
In-Core Storage of quantities:
   Amplitudes+Sigma Vector      ... YES
   J+K operators                ... YES
   DIIS vectors                 ... NO
   3-external integrals         ... NO
   4-external integrals         ... NO


Initializing the integral package          ... done
Warning: reference  - re-canonicalizations have been set to INT 1 VIRT 1

--------------------------
CLOSED-SHELL FOCK OPERATOR
--------------------------

<ss|ss>:       123256 b         2512 skpd (  2.0%)    0.006 s ( 0.000 ms/b)
<ss|sp>:       369024 b         8160 skpd (  2.2%)    0.018 s ( 0.000 ms/b)
<ss|sd>:       261392 b         5827 skpd (  2.2%)    0.015 s ( 0.000 ms/b)
<ss|sf>:        92256 b         1669 skpd (  1.8%)    0.010 s ( 0.000 ms/b)
<ss|pp>:       147808 b         2236 skpd (  1.5%)    0.007 s ( 0.000 ms/b)
<ss|pd>:       202368 b         4840 skpd (  2.4%)    0.013 s ( 0.000 ms/b)
<ss|pf>:        71424 b         1643 skpd (  2.3%)    0.007 s ( 0.000 ms/b)
<ss|dd>:        75888 b         1905 skpd (  2.5%)    0.006 s ( 0.000 ms/b)
<ss|df>:        50592 b          865 skpd (  1.7%)    0.007 s ( 0.000 ms/b)
<ss|ff>:        10416 b          123 skpd (  1.2%)    0.003 s ( 0.000 ms/b)
<sp|sp>:       277140 b         6614 skpd (  2.4%)    0.015 s ( 0.000 ms/b)
<sp|sd>:       392088 b         9494 skpd (  2.4%)    0.029 s ( 0.000 ms/b)
<sp|sf>:       138384 b         2750 skpd (  2.0%)    0.018 s ( 0.000 ms/b)
<sp|pp>:       221712 b         3683 skpd (  1.7%)    0.017 s ( 0.000 ms/b)
<sp|pd>:       303552 b         7736 skpd (  2.5%)    0.035 s ( 0.000 ms/b)
<sp|pf>:       107136 b         2707 skpd (  2.5%)    0.017 s ( 0.000 ms/b)
<sp|dd>:       113832 b         3040 skpd (  2.7%)    0.019 s ( 0.000 ms/b)
<sp|df>:        75888 b         1420 skpd (  1.9%)    0.020 s ( 0.000 ms/b)
<sp|ff>:        15624 b          198 skpd (  1.3%)    0.008 s ( 0.001 ms/b)
<sd|sd>:       139128 b         3715 skpd (  2.7%)    0.018 s ( 0.000 ms/b)
<sd|sf>:        98022 b         2217 skpd (  2.3%)    0.023 s ( 0.000 ms/b)
<sd|pp>:       157046 b         2638 skpd (  1.7%)    0.022 s ( 0.000 ms/b)
<sd|pd>:       215016 b         6089 skpd (  2.8%)    0.045 s ( 0.000 ms/b)
<sd|pf>:        75888 b         2096 skpd (  2.8%)    0.023 s ( 0.000 ms/b)
<sd|dd>:        80631 b         2376 skpd (  2.9%)    0.025 s ( 0.000 ms/b)
<sd|df>:        53754 b         1255 skpd (  2.3%)    0.028 s ( 0.001 ms/b)
<sd|ff>:        11067 b          150 skpd (  1.4%)    0.013 s ( 0.001 ms/b)
<sf|sf>:        17391 b          333 skpd (  1.9%)    0.009 s ( 0.001 ms/b)
<sf|pp>:        55428 b          715 skpd (  1.3%)    0.014 s ( 0.000 ms/b)
<sf|pd>:        75888 b         1817 skpd (  2.4%)    0.032 s ( 0.000 ms/b)
<sf|pf>:        26784 b          639 skpd (  2.4%)    0.017 s ( 0.001 ms/b)
<sf|dd>:        28458 b          715 skpd (  2.5%)    0.016 s ( 0.001 ms/b)
<sf|df>:        18972 b          384 skpd (  2.0%)    0.020 s ( 0.001 ms/b)
<sf|ff>:         3906 b           42 skpd (  1.1%)    0.009 s ( 0.002 ms/b)
<pp|pp>:        44551 b          398 skpd (  0.9%)    0.007 s ( 0.000 ms/b)
<pp|pd>:       121584 b         2144 skpd (  1.8%)    0.032 s ( 0.000 ms/b)
<pp|pf>:        42912 b          735 skpd (  1.7%)    0.015 s ( 0.000 ms/b)
<pp|dd>:        45594 b          859 skpd (  1.9%)    0.018 s ( 0.000 ms/b)
<pp|df>:        30396 b          338 skpd (  1.1%)    0.019 s ( 0.001 ms/b)
<pp|ff>:         6258 b           30 skpd (  0.5%)    0.008 s ( 0.001 ms/b)
<pd|pd>:        83436 b         2438 skpd (  2.9%)    0.038 s ( 0.000 ms/b)
<pd|pf>:        58752 b         1668 skpd (  2.8%)    0.037 s ( 0.001 ms/b)
<pd|dd>:        62424 b         1980 skpd (  3.2%)    0.045 s ( 0.001 ms/b)
<pd|df>:        41616 b         1111 skpd (  2.7%)    0.049 s ( 0.001 ms/b)
<pd|ff>:         8568 b          142 skpd (  1.7%)    0.021 s ( 0.003 ms/b)
<pf|pf>:        10440 b          298 skpd (  2.9%)    0.012 s ( 0.001 ms/b)
<pf|dd>:        22032 b          658 skpd (  3.0%)    0.025 s ( 0.001 ms/b)
<pf|df>:        14688 b          367 skpd (  2.5%)    0.029 s ( 0.002 ms/b)
<pf|ff>:         3024 b           43 skpd (  1.4%)    0.013 s ( 0.004 ms/b)
<dd|dd>:        11781 b          381 skpd (  3.2%)    0.016 s ( 0.001 ms/b)
<dd|df>:        15606 b          457 skpd (  2.9%)    0.034 s ( 0.002 ms/b)
<dd|ff>:         3213 b           46 skpd (  1.4%)    0.015 s ( 0.005 ms/b)
<df|df>:         5253 b          147 skpd (  2.8%)    0.023 s ( 0.005 ms/b)
<df|ff>:         2142 b           26 skpd (  1.2%)    0.018 s ( 0.008 ms/b)
<ff|ff>:          231 b            0 skpd (  0.0%)    0.004 s ( 0.018 ms/b)
Recanonicalizing the internal orbitals
Recanonicalizing the virtual orbitals
Time needed for Fock operator              ...            1.117 sec
Reference energy                           ...   -152.976308529
<ss|**>: 
------------------------------
PARTIAL COULOMB TRANSFORMATION
------------------------------

Transformation type                        ... one-operator
Dimension of the basis                     ...  230
Number of internal MOs                     ...  227 (3-229)
Pair cutoff                                ... 0.000e+00 Eh
Number of AO pairs included in the trafo   ... 26565
Total Number of distinct AO pairs          ... 26565
Memory devoted for trafo                   ...  500.0 MB 
Max. Number of MO pairs treated together   ... 2467      
Max. Number of MOs treated per batch       ...   10      
Number Format for Storage                  ... Double (8 Byte)
AO-integral source                         ... DIRECT
Integral package used                      ... LIBINT

Starting integral evaluation:
     1527184 b        0 skpd     0.245 s (  0.000 ms/b)
<sp|**>:      2290776 b        0 skpd     0.863 s (  0.000 ms/b)
<sd|**>:      1622633 b        0 skpd     1.018 s (  0.001 ms/b)
<sf|**>:       572694 b        0 skpd     0.552 s (  0.001 ms/b)
<pp|**>:       917542 b        0 skpd     0.971 s (  0.001 ms/b)
<pd|**>:      1256232 b        0 skpd     2.177 s (  0.002 ms/b)
<pf|**>:       443376 b        0 skpd     1.083 s (  0.002 ms/b)
<dd|**>:       471087 b        0 skpd     1.360 s (  0.003 ms/b)
<df|**>:       314058 b        0 skpd     1.421 s (  0.005 ms/b)
<ff|**>:        64659 b        0 skpd     0.487 s (  0.008 ms/b)
Closing buffer AOJ ( 0.32 GB; CompressionRatio= 1.00)
Collecting buffer AOJ 
    ... done with AO integral generation
Number of MO pairs included in the trafo   ... 25878
    ... Now sorting integrals
IBATCH = 1 of  1
Closing buffer JAO ( 0.32 GB; CompressionRatio= 1.00)
Collecting buffer JAO 
TOTAL TIME for half transformation         ...    17.184 sec
AO-integral generation                     ...     1.989 sec
Half transformation                        ...     8.219 sec
J-integral sorting                         ...     3.910 sec

-------------------------- SECOND HALF TRANSFORMATION -------------------------
Formation of (pq|rs)                       ... ok (     9.940 sec)
Integral sorting                           ... ok (    40.017 sec)

------------------
CLOSED SHELL GUESS
------------------

Initial guess performed in     0.038 sec
E(0)                                       ...   -152.976308529
E(MP2)                                     ...     -0.578022465
Initial E(tot)                             ...   -153.554330994
<T|T>                                      ...      0.166327922
Number of pairs included                   ... 45
Total number of pairs                      ... 45

------------------------------------------------
                  RHF COUPLED CLUSTER ITERATIONS
------------------------------------------------

Number of amplitudes to be optimized       ... 2140542

Iter       E(tot)           E(Corr)          Delta-E          Residual     Time
  0   -153.554330994     -0.578022465      0.000000000      0.013856863    4.44
                           *** Turning on DIIS ***
  1   -153.554467846     -0.578159317     -0.000136852      0.008217649    5.71
  2   -153.568801963     -0.592493434     -0.014334117      0.003247407    5.80
  3   -153.571923697     -0.595615168     -0.003121734      0.001876313    5.60
  4   -153.572863085     -0.596554556     -0.000939388      0.000816480    5.72
  5   -153.573033129     -0.596724601     -0.000170045      0.000340557    7.54
  6   -153.573075422     -0.596766894     -0.000042293      0.000139229    7.57
  7   -153.573081896     -0.596773367     -0.000006473      0.000050227    8.72
  8   -153.573081521     -0.596772992      0.000000375      0.000017423    8.45
  9   -153.573081560     -0.596773031     -0.000000039      0.000005509    7.38
               --- The Coupled-Cluster iterations have converged ---

----------------------
COUPLED CLUSTER ENERGY
----------------------

E(0)                                       ...   -152.976308529
E(CORR)                                    ...     -0.596773031
E(TOT)                                     ...   -153.573081560
Singles Norm <S|S>**1/2                    ...      0.062178140  
T1 diagnostic                              ...      0.014655528  

------------------
LARGEST AMPLITUDES
------------------
  10-> 23  10-> 23       0.054738
  10-> 17  10-> 23       0.031034
  10-> 23  10-> 17       0.031034
  10-> 23  -1-> -1       0.027191
   8-> 23  -1-> -1       0.022707
  10-> 23   8-> 23       0.021214
  10-> 29  10-> 23       0.020010
  10-> 23  10-> 29       0.020010
   8-> 23   8-> 23       0.019492
  10-> 23  10-> 54       0.018935
  10-> 54  10-> 23       0.018935
  10-> 17  10-> 17       0.018581
  10-> 25  10-> 23       0.015526
  10-> 23  10-> 25       0.015526
   5-> 23   5-> 23       0.015362
  10-> 34  10-> 23       0.014721


        !!!!!!!!!!!!!!!!!!!!!!!!!!!!!!!!!!!!!!!!!!!!!!!!!!!!!!!!!!!!!!!!!!!!!!!!!! 
        !  Warning: Densities are linearized densities !                         !
        !!!!!!!!!!!!!!!!!!!!!!!!!!!!!!!!!!!!!!!!!!!!!!!!!!!!!!!!!!!!!!!!!!!!!!!!!! 

Trace of internal density part =     -0.381096594
Trace of external density part =      0.381096594
NORM  =      1.194414418 sqrt=     1.092892684
W(HF) =      0.837230349
------------------------------------------------------------------------------
                           ORCA POPULATION ANALYSIS
------------------------------------------------------------------------------
Input electron density              ... acetaldehyde_CCSD_aug-cc-pVTZ_SPE.mdcip
BaseName (.gbw .S,...)              ... acetaldehyde_CCSD_aug-cc-pVTZ_SPE

                    ********************************
                    * MULLIKEN POPULATION ANALYSIS *
                    ********************************

-----------------------
MULLIKEN ATOMIC CHARGES
-----------------------
   0 C :   -0.752224
   1 C :   -0.169777
   2 O :   -0.512724
   3 H :    0.331662
   4 H :    0.310980
   5 H :    0.311024
   6 H :    0.481059
Sum of atomic charges:   -0.0000000

--------------------------------
MULLIKEN REDUCED ORBITAL CHARGES
--------------------------------
  0 C s       :     3.147261  s :     3.147261
      pz      :     1.227057  p :     3.449376
      px      :     0.947815
      py      :     1.274505
      dz2     :     0.027198  d :     0.146947
      dxz     :     0.034192
      dyz     :     0.043576
      dx2y2   :     0.027496
      dxy     :     0.014485
      f0      :     0.000852  f :     0.008639
      f+1     :    -0.000620
      f-1     :     0.000625
      f+2     :     0.002786
      f-2     :     0.001761
      f+3     :     0.002965
      f-3     :     0.000268
  1 C s       :     3.464346  s :     3.464346
      pz      :     0.735600  p :     2.490796
      px      :     0.882944
      py      :     0.872252
      dz2     :     0.007256  d :     0.187824
      dxz     :     0.026991
      dyz     :     0.035133
      dx2y2   :     0.106402
      dxy     :     0.012042
      f0      :     0.001660  f :     0.026810
      f+1     :     0.001990
      f-1     :     0.001537
      f+2     :     0.004595
      f-2     :     0.002500
      f+3     :     0.003116
      f-3     :     0.011412
  2 O s       :     3.975973  s :     3.975973
      pz      :     1.337730  p :     4.450788
      px      :     1.668951
      py      :     1.444107
      dz2     :     0.009403  d :     0.077176
      dxz     :     0.013451
      dyz     :     0.017626
      dx2y2   :     0.021613
      dxy     :     0.015083
      f0      :     0.000852  f :     0.008788
      f+1     :     0.000884
      f-1     :     0.000869
      f+2     :     0.000919
      f-2     :     0.001653
      f+3     :     0.001544
      f-3     :     0.002068
  3 H s       :     0.616828  s :     0.616828
      pz      :     0.017605  p :     0.046579
      px      :     0.017526
      py      :     0.011449
      dz2     :     0.001042  d :     0.004931
      dxz     :     0.000306
      dyz     :     0.001010
      dx2y2   :     0.001125
      dxy     :     0.001447
  4 H s       :     0.633618  s :     0.633618
      pz      :     0.015151  p :     0.049618
      px      :     0.013947
      py      :     0.020520
      dz2     :     0.001371  d :     0.005784
      dxz     :    -0.000402
      dyz     :     0.002713
      dx2y2   :     0.001646
      dxy     :     0.000455
  5 H s       :     0.633585  s :     0.633585
      pz      :     0.018479  p :     0.049606
      px      :     0.012447
      py      :     0.018680
      dz2     :     0.002623  d :     0.005784
      dxz     :     0.000542
      dyz     :    -0.000976
      dx2y2   :     0.002184
      dxy     :     0.001411
  6 H s       :     0.528696  s :     0.528696
      pz      :    -0.003691  p :    -0.008581
      px      :     0.014283
      py      :    -0.019172
      dz2     :    -0.000873  d :    -0.001174
      dxz     :     0.000439
      dyz     :    -0.001704
      dx2y2   :    -0.001354
      dxy     :     0.002319


                     *******************************
                     * LOEWDIN POPULATION ANALYSIS *
                     *******************************

----------------------
LOEWDIN ATOMIC CHARGES
----------------------
   0 C :    0.535867
   1 C :   -0.250181
   2 O :    0.464352
   3 H :   -0.186199
   4 H :   -0.181926
   5 H :   -0.181923
   6 H :   -0.199990

-------------------------------
LOEWDIN REDUCED ORBITAL CHARGES
-------------------------------
  0 C s       :     2.477390  s :     2.477390
      pz      :     0.769616  p :     2.302979
      px      :     0.753375
      py      :     0.779988
      dz2     :     0.073200  d :     0.497744
      dxz     :     0.107420
      dyz     :     0.080283
      dx2y2   :     0.128672
      dxy     :     0.108168
      f0      :     0.021028  f :     0.186021
      f+1     :     0.027943
      f-1     :     0.007988
      f+2     :     0.031073
      f-2     :     0.014688
      f+3     :     0.030466
      f-3     :     0.052835
  1 C s       :     2.541169  s :     2.541169
      pz      :     0.563923  p :     2.210565
      px      :     0.828476
      py      :     0.818165
      dz2     :     0.078043  d :     1.031406
      dxz     :     0.164003
      dyz     :     0.130844
      dx2y2   :     0.349456
      dxy     :     0.309060
      f0      :     0.039457  f :     0.467040
      f+1     :     0.031856
      f-1     :     0.029867
      f+2     :     0.056908
      f-2     :     0.057622
      f+3     :     0.091938
      f-3     :     0.159393
  2 O s       :     3.227363  s :     3.227363
      pz      :     1.135930  p :     3.978727
      px      :     1.451642
      py      :     1.391156
      dz2     :     0.029104  d :     0.248621
      dxz     :     0.021532
      dyz     :     0.042335
      dx2y2   :     0.089972
      dxy     :     0.065679
      f0      :     0.006538  f :     0.080938
      f+1     :     0.005970
      f-1     :     0.007408
      f+2     :     0.006411
      f-2     :     0.011418
      f+3     :     0.015722
      f-3     :     0.027472
  3 H s       :     0.636225  s :     0.636225
      pz      :     0.095242  p :     0.319943
      px      :     0.087541
      py      :     0.137161
      dz2     :     0.036531  d :     0.230032
      dxz     :     0.017267
      dyz     :     0.060133
      dx2y2   :     0.066134
      dxy     :     0.049966
  4 H s       :     0.630981  s :     0.630981
      pz      :     0.138783  p :     0.323504
      px      :     0.093559
      py      :     0.091161
      dz2     :     0.066194  d :     0.227440
      dxz     :     0.046302
      dyz     :     0.071871
      dx2y2   :     0.030266
      dxy     :     0.012808
  5 H s       :     0.630999  s :     0.630999
      pz      :     0.113666  p :     0.323494
      px      :     0.084982
      py      :     0.124845
      dz2     :     0.064283  d :     0.227430
      dxz     :     0.030183
      dyz     :     0.041484
      dx2y2   :     0.052020
      dxy     :     0.039461
  6 H s       :     0.703544  s :     0.703544
      pz      :     0.071159  p :     0.290884
      px      :     0.086136
      py      :     0.133589
      dz2     :     0.030282  d :     0.205562
      dxz     :     0.017982
      dyz     :     0.050289
      dx2y2   :     0.057538
      dxy     :     0.049471


                      *****************************
                      * MAYER POPULATION ANALYSIS *
                      *****************************

  NA   - Mulliken gross atomic population
  ZA   - Total nuclear charge
  QA   - Mulliken gross atomic charge
  VA   - Mayer's total valence
  BVA  - Mayer's bonded valence
  FA   - Mayer's free valence

  ATOM       NA         ZA         QA         VA         BVA        FA
  0 C      6.7522     6.0000    -0.7522     3.7436     3.3720     0.3716
  1 C      6.1698     6.0000    -0.1698     3.4774     3.1181     0.3593
  2 O      8.5127     8.0000    -0.5127     2.0819     1.6033     0.4786
  3 H      0.6683     1.0000     0.3317     0.9872     0.9234     0.0638
  4 H      0.6890     1.0000     0.3110     0.9992     0.9355     0.0637
  5 H      0.6890     1.0000     0.3110     0.9992     0.9354     0.0637
  6 H      0.5189     1.0000     0.4811     0.7029     0.6342     0.0688

  Mayer bond orders larger than 0.100000
B(  0-C ,  1-C ) :   0.8466 B(  0-C ,  3-H ) :   0.8313 B(  0-C ,  4-H ) :   0.8360 
B(  0-C ,  5-H ) :   0.8360 B(  1-C ,  2-O ) :   1.5975 B(  1-C ,  6-H ) :   0.6245 




------------------------------------------------------------------------------- 
                                     TIMINGS                                   
------------------------------------------------------------------------------- 


Total execution time                   ...      137.559 sec

Fock Matrix Formation                  ...        1.117 sec (  0.8%)
Initial Guess                          ...        0.038 sec (  0.0%)
DIIS Solver                            ...        2.266 sec (  1.6%)
State Vector Update                    ...        0.252 sec (  0.2%)
Sigma-vector construction              ...       64.416 sec ( 46.8%)
  <0|H|D>                              ...        0.015 sec (  0.0% of sigma)
  <D|H|D>(0-ext)                       ...        0.286 sec (  0.4% of sigma)
  <D|H|D>(2-ext Fock)                  ...        0.124 sec (  0.2% of sigma)
  <D|H|D>(2-ext)                       ...        3.297 sec (  5.1% of sigma)
  <D|H|D>(4-ext)                       ...       22.374 sec ( 34.7% of sigma)
  <D|H|D>(4-ext-corr)                  ...       14.174 sec ( 22.0% of sigma)
  <S|H|0>                              ...        0.024 sec (  0.0% of sigma)
  <S|H|S>                              ...        0.030 sec (  0.0% of sigma)
  <S|H|D>(1-ext)                       ...        0.103 sec (  0.2% of sigma)
  <D|H|S>(1-ext)                       ...        0.100 sec (  0.2% of sigma)
  <S|H|D>(3-ext)                       ...        3.934 sec (  6.1% of sigma)
  Fock-dressing                        ...        7.869 sec ( 12.2% of sigma)
  (ik|jl)-dressing                     ...        0.212 sec (  0.3% of sigma)
  (ij|ab),(ia|jb)-dressing             ...       10.730 sec ( 16.7% of sigma)
  Pair energies                        ...        0.031 sec (  0.0% of sigma)
One-particle density matrix            ...        0.049 sec (  0.0%)


-------------------------   --------------------
FINAL SINGLE POINT ENERGY      -153.573081560159
-------------------------   --------------------


                            ***************************************
                            *     ORCA property calculations      *
                            ***************************************

                                    ---------------------
                                    Active property flags
                                    ---------------------
   (+) Dipole Moment


------------------------------------------------------------------------------
                       ORCA ELECTRIC PROPERTIES CALCULATION
------------------------------------------------------------------------------

Dipole Moment Calculation                       ... on
Quadrupole Moment Calculation                   ... off
Polarizability Calculation                      ... off
GBWName                                         ... acetaldehyde_CCSD_aug-cc-pVTZ_SPE.gbw
Electron density file                           ... acetaldehyde_CCSD_aug-cc-pVTZ_SPE.scfp
The origin for moment calculation is the CENTER OF MASS  = ( 0.437015,  0.635640 -0.398755)

-------------
DIPOLE MOMENT
-------------
                                X             Y             Z
Electronic contribution:     -2.86375       1.31789      -0.06997
Nuclear contribution   :      3.75271      -2.24291       0.28877
                        -----------------------------------------
Total Dipole Moment    :      0.88896      -0.92502       0.21881
                        -----------------------------------------
Magnitude (a.u.)       :      1.30146
Magnitude (Debye)      :      3.30804



--------------------
Rotational spectrum 
--------------------
 
Rotational constants in cm-1:     1.901356     0.338825     0.303642 
Rotational constants in MHz : 57001.220388 10157.716774  9102.948745 

 Dipole components along the rotational axes: 
x,y,z [a.u.] :     1.186972    -0.533749     0.000022 
x,y,z [Debye]:     3.017042    -1.356682     0.000056 

 

                           *** MDCI DENSITY ***

------------------------------------------------------------------------------
                       ORCA ELECTRIC PROPERTIES CALCULATION
------------------------------------------------------------------------------

Dipole Moment Calculation                       ... on
Quadrupole Moment Calculation                   ... off
Polarizability Calculation                      ... off
GBWName                                         ... acetaldehyde_CCSD_aug-cc-pVTZ_SPE.gbw
Electron density file                           ... acetaldehyde_CCSD_aug-cc-pVTZ_SPE.mdcip
The origin for moment calculation is the CENTER OF MASS  = ( 0.437015,  0.635640 -0.398755)

-------------
DIPOLE MOMENT
-------------
                                X             Y             Z
Electronic contribution:     -3.00227       1.49914      -0.11826
Nuclear contribution   :      3.75271      -2.24291       0.28877
                        -----------------------------------------
Total Dipole Moment    :      0.75044      -0.74377       0.17052
                        -----------------------------------------
Magnitude (a.u.)       :      1.07025
Magnitude (Debye)      :      2.72035



--------------------
Rotational spectrum 
--------------------
 
Rotational constants in cm-1:     1.901356     0.338825     0.303642 
Rotational constants in MHz : 57001.220388 10157.716774  9102.948745 

 Dipole components along the rotational axes: 
x,y,z [a.u.] :     0.987022    -0.413784    -0.000009 
x,y,z [Debye]:     2.508810    -1.051755    -0.000022 

 

Timings for individual modules:

Sum of individual times         ...      151.249 sec (=   2.521 min)
GTO integral calculation        ...        0.675 sec (=   0.011 min)   0.4 %
SCF iterations                  ...       11.617 sec (=   0.194 min)   7.7 %
MDCI module                     ...      138.957 sec (=   2.316 min)  91.9 %
                             ****ORCA TERMINATED NORMALLY****
TOTAL RUN TIME: 0 days 0 hours 2 minutes 31 seconds 645 msec
