
                                 *****************
                                 * O   R   C   A *
                                 *****************

           --- An Ab Initio, DFT and Semiempirical electronic structure package ---

                  #######################################################
                  #                        -***-                        #
                  #          Department of theory and spectroscopy      #
                  #               Directorship: Frank Neese             #
                  #        Max Planck Institute fuer Kohlenforschung    #
                  #                Kaiser Wilhelm Platz 1               #
                  #                 D-45470 Muelheim/Ruhr               #
                  #                      Germany                        #
                  #                                                     #
                  #                  All rights reserved                #
                  #                        -***-                        #
                  #######################################################


                         Program Version 4.2.1 -  RELEASE  -


 With contributions from (in alphabetic order):
   Daniel Aravena         : Magnetic Suceptibility
   Michael Atanasov       : Ab Initio Ligand Field Theory (pilot matlab implementation)
   Alexander A. Auer      : GIAO ZORA, VPT2
   Ute Becker             : Parallelization
   Giovanni Bistoni       : ED, misc. LED, open-shell LED, HFLD
   Martin Brehm           : Molecular dynamics
   Dmytro Bykov           : SCF Hessian
   Vijay G. Chilkuri      : MRCI spin determinant printing, contributions to CSF-ICE
   Dipayan Datta          : RHF DLPNO-CCSD density
   Achintya Kumar Dutta   : EOM-CC, STEOM-CC
   Dmitry Ganyushin       : Spin-Orbit,Spin-Spin,Magnetic field MRCI
   Miquel Garcia          : C-PCM Hessian, Gaussian charge scheme
   Yang Guo               : DLPNO-NEVPT2, CIM, IAO-localization
   Andreas Hansen         : Spin unrestricted coupled pair/coupled cluster methods
   Benjamin Helmich-Paris : CASSCF linear response (MC-RPA)
   Lee Huntington         : MR-EOM, pCC
   Robert Izsak           : Overlap fitted RIJCOSX, COSX-SCS-MP3, EOM
   Christian Kollmar      : KDIIS, OOCD, Brueckner-CCSD(T), CCSD density
   Simone Kossmann        : Meta GGA functionals, TD-DFT gradient, OOMP2, MP2 Hessian
   Martin Krupicka        : AUTO-CI
   Lucas Lang             : DCDCAS
   Dagmar Lenk            : GEPOL surface, SMD
   Dimitrios Liakos       : Extrapolation schemes; Compound Job, initial MDCI parallelization
   Dimitrios Manganas     : Further ROCIS development; embedding schemes
   Dimitrios Pantazis     : SARC Basis sets
   Taras Petrenko         : DFT Hessian,TD-DFT gradient, ASA, ECA, R-Raman, ABS, FL, XAS/XES, NRVS
   Peter Pinski           : DLPNO-MP2, DLPNO-MP2 Gradient
   Christoph Reimann      : Effective Core Potentials
   Marius Retegan         : Local ZFS, SOC
   Christoph Riplinger    : Optimizer, TS searches, QM/MM, DLPNO-CCSD(T), (RO)-DLPNO pert. Triples
   Tobias Risthaus        : Range-separated hybrids, TD-DFT gradient, RPA, STAB
   Michael Roemelt        : Original ROCIS implementation
   Masaaki Saitow         : Open-shell DLPNO-CCSD energy and density
   Barbara Sandhoefer     : DKH picture change effects
   Avijit Sen             : IP-ROCIS
   Kantharuban Sivalingam : CASSCF convergence, NEVPT2, FIC-MRCI
   Bernardo de Souza      : ESD, SOC TD-DFT
   Georgi Stoychev        : AutoAux, RI-MP2 NMR
   Willem Van den Heuvel  : Paramagnetic NMR
   Boris Wezisla          : Elementary symmetry handling
   Frank Wennmohs         : Technical directorship


 We gratefully acknowledge several colleagues who have allowed us to
 interface, adapt or use parts of their codes:
   Stefan Grimme, W. Hujo, H. Kruse,             : VdW corrections, initial TS optimization,
                  C. Bannwarth                     DFT functionals, gCP, sTDA/sTD-DF
   Ed Valeev, F. Pavosevic, A. Kumar             : LibInt (2-el integral package), F12 methods
   Garnet Chan, S. Sharma, J. Yang, R. Olivares  : DMRG
   Ulf Ekstrom                                   : XCFun DFT Library
   Mihaly Kallay                                 : mrcc  (arbitrary order and MRCC methods)
   Andreas Klamt, Michael Diedenhofen            : otool_cosmo (COSMO solvation model)
   Jiri Pittner, Ondrej Demel                    : Mk-CCSD
   Frank Weinhold                                : gennbo (NPA and NBO analysis)
   Christopher J. Cramer and Donald G. Truhlar   : smd solvation model
   Lars Goerigk                                  : TD-DFT with DH, B97 family of functionals
   V. Asgeirsson, H. Jonsson                     : NEB implementation
   FAccTs GmbH                                   : IRC, NEB, NEB-TS, Multilevel, MM, QM/MM, CI optimization
   S Lehtola, MJT Oliveira, MAL Marques          : LibXC Library


 Your calculation uses the libint2 library for the computation of 2-el integrals
 For citations please refer to: http://libint.valeyev.net

 Your ORCA version has been built with support for libXC version: 4.2.3
 For citations please refer to: https://tddft.org/programs/libxc/

 This ORCA versions uses:
   CBLAS   interface :  Fast vector & matrix operations
   LAPACKE interface :  Fast linear algebra routines
   SCALAPACK package :  Parallel linear algebra routines




***************************************
The coordinates will be read from file: acetaldehyde_B3LYP_cc-pVTZ_OPT.xyz
***************************************


----- Orbital basis set information -----
Your calculation utilizes the basis: aug-cc-pVTZ 
    H, B-Ne : Obtained from the ccRepo (grant-hill.group.shef.ac.uk/ccrepo) Feb. 2017
              R. A. Kendall, T. H. Dunning, Jr., R. J. Harrison, J. Chem. Phys. 96, 6796 (1992)
         He : Obtained from the ccRepo (grant-hill.group.shef.ac.uk/ccrepo) Feb. 2017
              D. E. Woon, T. H. Dunning, Jr., J. Chem. Phys. 100, 2975 (1994)
  Li-Be, Na : Obtained from the ccRepo (grant-hill.group.shef.ac.uk/ccrepo) Feb. 2017
              B. P. Prascher, D. E. Woon, K. A. Peterson, T. H. Dunning, Jr., A. K. Wilson, Theor. Chem. Acc. 128, 69 (2011)
         Mg : Obtained from the Peterson Research Group Website (tyr0.chem.wsu.edu/~kipeters) Feb. 2017
              B. P. Prascher, D. E. Woon, K. A. Peterson, T. H. Dunning, Jr., A. K. Wilson, Theor. Chem. Acc. 128, 69 (2011)
      Al-Ar : Obtained from the ccRepo (grant-hill.group.shef.ac.uk/ccrepo) Feb. 2017
              D. E. Woon, T. H. Dunning, Jr., J. Chem. Phys. 98, 1358 (1993)
      Sc-Zn : Obtained from the ccRepo (grant-hill.group.shef.ac.uk/ccrepo) Feb. 2017
              N. B. Balabanov, K. A. Peterson, J. Chem. Phys. 123, 064107 (2005)
              N. B. Balabanov, K. A. Peterson, J. Chem. Phys. 125, 074110 (2006)
      Ga-Kr : Obtained from the ccRepo (grant-hill.group.shef.ac.uk/ccrepo) Feb. 2017
              A. K. Wilson, D. E. Woon, K. A. Peterson, T. H. Dunning, Jr., J. Chem. Phys. 110, 7667 (1999)
     Ag, Au : Obtained from the Peterson Research Group Website (tyr0.chem.wsu.edu/~kipeters) Feb. 2017
              K. A. Peterson, C. Puzzarini, Theor. Chem. Acc. 114, 283 (2005)

================================================================================
                                        WARNINGS
                       Please study these warnings very carefully!
================================================================================


WARNING: The frozen-core approximation for MP2-gradient calculations is turned on by default.

WARNING: Geometry Optimization
  ===> : Switching off AutoStart
         For restart on a previous wavefunction, please use MOREAD

WARNING: Post HF methods need fully converged wavefunctions
  ===> : Setting SCFConvForced true
         You can overwrite this default with %scf ConvForced false 


INFO   : the flag for use of LIBINT has been found!

================================================================================
                                       INPUT FILE
================================================================================
NAME = acetaldehyde_MP2_aug-cc-pVTZ_OPT.inp
|  1> # acetaldehyde MP2/aug-cc-pVTZ Optimization
|  2> 
|  3> ! MP2 aug-cc-pVTZ TightSCF Opt PAL16
|  4> %maxcore 1000
|  5> 
|  6> * xyzfile 0 1 acetaldehyde_B3LYP_cc-pVTZ_OPT.xyz
|  7> 
|  8> 
|  9>                          ****END OF INPUT****
================================================================================

                       *****************************
                       * Geometry Optimization Run *
                       *****************************

Geometry optimization settings:
Update method            Update   .... BFGS
Choice of coordinates    CoordSys .... Z-matrix Internals
Initial Hessian          InHess   .... Almoef's Model

Convergence Tolerances:
Energy Change            TolE     ....  5.0000e-06 Eh
Max. Gradient            TolMAXG  ....  3.0000e-04 Eh/bohr
RMS Gradient             TolRMSG  ....  1.0000e-04 Eh/bohr
Max. Displacement        TolMAXD  ....  4.0000e-03 bohr
RMS Displacement         TolRMSD  ....  2.0000e-03 bohr
Strict Convergence                ....  False
------------------------------------------------------------------------------
                        ORCA OPTIMIZATION COORDINATE SETUP
------------------------------------------------------------------------------

The optimization will be done in new redundant internal coordinates
Making redundant internal coordinates   ...  (new redundants) done
Evaluating the initial hessian          ...  (Almloef) done
Evaluating the coordinates              ...  done
Calculating the B-matrix                .... done
Calculating the G-matrix                .... done
Diagonalizing the G-matrix              .... done
The first mode is                       ....    6
The number of degrees of freedom        ....   15

    -----------------------------------------------------------------
                    Redundant Internal Coordinates


    -----------------------------------------------------------------
         Definition                    Initial Value    Approx d2E/dq
    -----------------------------------------------------------------
      1. B(C   1,C   0)                  1.5017         0.414550   
      2. B(O   2,C   1)                  1.2036         1.109661   
      3. B(H   3,C   0)                  1.0878         0.362971   
      4. B(H   4,C   0)                  1.0935         0.355494   
      5. B(H   5,C   0)                  1.0937         0.355295   
      6. B(H   6,C   1)                  1.1110         0.333312   
      7. A(H   3,C   0,H   4)          110.0580         0.290614   
      8. A(C   1,C   0,H   4)          109.5612         0.329227   
      9. A(C   1,C   0,H   3)          110.8486         0.330361   
     10. A(C   1,C   0,H   5)          109.5460         0.329196   
     11. A(H   3,C   0,H   5)          110.1246         0.290589   
     12. A(H   4,C   0,H   5)          106.6083         0.289641   
     13. A(O   2,C   1,H   6)          120.2890         0.382417   
     14. A(C   0,C   1,H   6)          114.9433         0.325749   
     15. A(C   0,C   1,O   2)          124.7678         0.445422   
     16. D(O   2,C   1,C   0,H   4)    121.5534         0.012718   
     17. D(O   2,C   1,C   0,H   5)   -121.8292         0.012718   
     18. D(H   6,C   1,C   0,H   3)    179.9012         0.012718   
     19. D(H   6,C   1,C   0,H   4)    -58.4442         0.012718   
     20. D(H   6,C   1,C   0,H   5)     58.1732         0.012718   
     21. D(O   2,C   1,C   0,H   3)     -0.1012         0.012718   
    -----------------------------------------------------------------

Number of atoms                         .... 7
Number of degrees of freedom            .... 21

         *************************************************************
         *                GEOMETRY OPTIMIZATION CYCLE   1            *
         *************************************************************
---------------------------------
CARTESIAN COORDINATES (ANGSTROEM)
---------------------------------
  C      1.444562   -0.022002   -0.257638
  C     -0.042254    0.034698   -0.054725
  O     -0.734361    0.985246   -0.312046
  H      1.814777    0.913421   -0.671544
  H      1.936574   -0.230753    0.696353
  H      1.691365   -0.852562   -0.924978
  H     -0.493414   -0.889667    0.365298

----------------------------
CARTESIAN COORDINATES (A.U.)
----------------------------
  NO LB      ZA    FRAG     MASS         X           Y           Z
   0 C     6.0000    0    12.011    2.729827   -0.041578   -0.486865
   1 C     6.0000    0    12.011   -0.079849    0.065570   -0.103416
   2 O     8.0000    0    15.999   -1.387741    1.861844   -0.589682
   3 H     1.0000    0     1.008    3.429431    1.726115   -1.269034
   4 H     1.0000    0     1.008    3.659595   -0.436061    1.315916
   5 H     1.0000    0     1.008    3.196218   -1.611109   -1.747955
   6 H     1.0000    0     1.008   -0.932416   -1.681227    0.690314

--------------------------------
INTERNAL COORDINATES (ANGSTROEM)
--------------------------------
 C      0   0   0     0.000000000000     0.00000000     0.00000000
 C      1   0   0     1.501669582105     0.00000000     0.00000000
 O      2   1   0     1.203646602196   124.76775939     0.00000000
 H      1   2   3     1.087838657677   110.84862728   359.89877421
 H      1   2   3     1.093504200256   109.56120044   121.55343380
 H      1   2   3     1.093656453722   109.54597147   238.17077949
 H      2   1   3     1.111042684373   114.94326842   180.00241547

---------------------------
INTERNAL COORDINATES (A.U.)
---------------------------
 C      0   0   0     0.000000000000     0.00000000     0.00000000
 C      1   0   0     2.837744253818     0.00000000     0.00000000
 O      2   1   0     2.274562440176   124.76775939     0.00000000
 H      1   2   3     2.055717140902   110.84862728   359.89877421
 H      1   2   3     2.066423464777   109.56120044   121.55343380
 H      1   2   3     2.066711182130   109.54597147   238.17077949
 H      2   1   3     2.099566396561   114.94326842   180.00241547

---------------------
BASIS SET INFORMATION
---------------------
There are 3 groups of distinct atoms

 Group   1 Type C   : 19s6p3d2f contracted to 5s4p3d2f pattern {88111/3111/111/11}
 Group   2 Type O   : 19s6p3d2f contracted to 5s4p3d2f pattern {88111/3111/111/11}
 Group   3 Type H   : 6s3p2d contracted to 4s3p2d pattern {3111/111/11}

Atom   0C    basis set group =>   1
Atom   1C    basis set group =>   1
Atom   2O    basis set group =>   2
Atom   3H    basis set group =>   3
Atom   4H    basis set group =>   3
Atom   5H    basis set group =>   3
Atom   6H    basis set group =>   3


           ************************************************************
           *        Program running with 16 parallel MPI-processes    *
           *              working on a common directory               *
           ************************************************************
------------------------------------------------------------------------------
                           ORCA GTO INTEGRAL CALCULATION
------------------------------------------------------------------------------

                         BASIS SET STATISTICS AND STARTUP INFO

 # of primitive gaussian shells          ...  134
 # of primitive gaussian functions       ...  298
 # of contracted shells                  ...   78
 # of contracted basis functions         ...  230
 Highest angular momentum                ...    3
 Maximum contraction depth               ...    8
 Integral package used                   ... LIBINT
 Integral threshhold            Thresh   ...  2.500e-11
 Primitive cut-off              TCut     ...  2.500e-12


------------------------------ INTEGRAL EVALUATION ----------------------------


 * One electron integrals 
 Pre-screening matrix                    ... done
 Shell pair data                         ... done (   0.001 sec)



           ************************************************************
           *        Program running with 16 parallel MPI-processes    *
           *              working on a common directory               *
           ************************************************************
-------------------------------------------------------------------------------
                                 ORCA SCF
-------------------------------------------------------------------------------

------------
SCF SETTINGS
------------
Hamiltonian:
 Ab initio Hamiltonian  Method          .... Hartree-Fock(GTOs)


General Settings:
 Integral files         IntName         .... acetaldehyde_MP2_aug-cc-pVTZ_OPT
 Hartree-Fock type      HFTyp           .... RHF
 Total Charge           Charge          ....    0
 Multiplicity           Mult            ....    1
 Number of Electrons    NEL             ....   24
 Basis Dimension        Dim             ....  230
 Nuclear Repulsion      ENuc            ....     69.8038789309 Eh

Convergence Acceleration:
 DIIS                   CNVDIIS         .... on
   Start iteration      DIISMaxIt       ....    12
   Startup error        DIISStart       ....  0.200000
   # of expansion vecs  DIISMaxEq       ....     5
   Bias factor          DIISBfac        ....   1.050
   Max. coefficient     DIISMaxC        ....  10.000
 Newton-Raphson         CNVNR           .... off
 SOSCF                  CNVSOSCF        .... on
   Start iteration      SOSCFMaxIt      ....   150
   Startup grad/error   SOSCFStart      ....  0.003300
 Level Shifting         CNVShift        .... on
   Level shift para.    LevelShift      ....    0.2500
   Turn off err/grad.   ShiftErr        ....    0.0010
 Zerner damping         CNVZerner       .... off
 Static damping         CNVDamp         .... on
   Fraction old density DampFac         ....    0.7000
   Max. Damping (<1)    DampMax         ....    0.9800
   Min. Damping (>=0)   DampMin         ....    0.0000
   Turn off err/grad.   DampErr         ....    0.1000
 Fernandez-Rico         CNVRico         .... off

SCF Procedure:
 Maximum # iterations   MaxIter         ....   125
 SCF integral mode      SCFMode         .... Direct
   Integral package                     .... LIBINT
 Reset frequency        DirectResetFreq ....    20
 Integral Threshold     Thresh          ....  2.500e-11 Eh
 Primitive CutOff       TCut            ....  2.500e-12 Eh

Convergence Tolerance:
 Convergence Check Mode ConvCheckMode   .... Total+1el-Energy
 Convergence forced     ConvForced      .... 1
 Energy Change          TolE            ....  1.000e-08 Eh
 1-El. energy change                    ....  1.000e-05 Eh
 Orbital Gradient       TolG            ....  1.000e-05
 Orbital Rotation angle TolX            ....  1.000e-05
 DIIS Error             TolErr          ....  5.000e-07


Diagonalization of the overlap matrix:
Smallest eigenvalue                        ... 3.063e-05
Time for diagonalization                   ...    0.014 sec
Threshold for overlap eigenvalues          ... 1.000e-08
Number of eigenvalues below threshold      ... 0
Time for construction of square roots      ...    0.011 sec
Total time needed                          ...    0.025 sec

-------------------
DFT GRID GENERATION
-------------------

General Integration Accuracy     IntAcc      ...  4.340
Radial Grid Type                 RadialGrid  ... Gauss-Chebyshev
Angular Grid (max. acc.)         AngularGrid ... Lebedev-110
Angular grid pruning method      GridPruning ... 3 (G Style)
Weight generation scheme         WeightScheme... Becke
Basis function cutoff            BFCut       ...    1.0000e-11
Integration weight cutoff        WCut        ...    1.0000e-14
Grids for H and He will be reduced by one unit

# of grid points (after initial pruning)     ...   8204 (   0.0 sec)
# of grid points (after weights+screening)   ...   7932 (   0.0 sec)
nearest neighbour list constructed           ...    0.0 sec
Grid point re-assignment to atoms done       ...    0.0 sec
Grid point division into batches done        ...    0.0 sec
Reduced shell lists constructed in    0.0 sec

Total number of grid points                  ...     7932
Total number of batches                      ...      126
Average number of points per batch           ...       62
Average number of grid points per atom       ...     1133
Average number of shells per batch           ...    68.44 (87.75%)
Average number of basis functions per batch  ...   200.89 (87.34%)
Average number of large shells per batch     ...    65.44 (95.62%)
Average number of large basis fcns per batch ...   192.56 (95.85%)
Maximum spatial batch extension              ...   1.91,  2.02,  2.14 au
Average spatial batch extension              ...   0.10,  0.10,  0.10 au

Time for grid setup =    0.014 sec

------------------------------
INITIAL GUESS: MODEL POTENTIAL
------------------------------
Loading Hartree-Fock densities                     ... done
Calculating cut-offs                               ... done
Setting up the integral package                    ... done
Initializing the effective Hamiltonian             ... done
Starting the Coulomb interaction                   ... done (   0.0 sec)
Reading the grid                                   ... done
Mapping shells                                     ... done
Starting the XC term evaluation                    ... done (   0.0 sec)
Transforming the Hamiltonian                       ... done (   0.0 sec)
Diagonalizing the Hamiltonian                      ... done (   0.0 sec)
Back transforming the eigenvectors                 ... done (   0.0 sec)
Now organizing SCF variables                       ... done
                      ------------------
                      INITIAL GUESS DONE (   0.1 sec)
                      ------------------
--------------
SCF ITERATIONS
--------------
ITER       Energy         Delta-E        Max-DP      RMS-DP      [F,P]     Damp
               ***  Starting incremental Fock matrix formation  ***
  0   -152.8118801434   0.000000000000 0.02732039  0.00068584  0.3132828 0.7000
  1   -152.8708268929  -0.058946749537 0.02014685  0.00051787  0.1901442 0.7000
                               ***Turning on DIIS***
  2   -152.9054125363  -0.034585643333 0.01485612  0.00035445  0.1096039 0.7000
  3   -153.2488212618  -0.343408725576 0.03803044  0.00086865  0.0825342 0.0000
  4   -152.9487442557   0.300077006135 0.00936939  0.00013474  0.0081666 0.0000
  5   -152.9783449371  -0.029600681348 0.00237000  0.00005332  0.0040590 0.0000
                      *** Initiating the SOSCF procedure ***
                           *** Shutting down DIIS ***
                      *** Re-Reading the Fockian *** 
                      *** Removing any level shift *** 
ITER      Energy       Delta-E        Grad      Rot      Max-DP    RMS-DP
  6   -152.97637098   0.0019739585  0.001718  0.001718  0.001264  0.000026
               *** Restarting incremental Fock matrix formation ***
  7   -152.97717438  -0.0008034027  0.000512  0.000790  0.000730  0.000015
  8   -152.97718018  -0.0000057954  0.000428  0.001366  0.000668  0.000016
  9   -152.97718228  -0.0000021064  0.000133  0.000175  0.000191  0.000004
 10   -152.97718255  -0.0000002711  0.000042  0.000057  0.000065  0.000001
 11   -152.97718257  -0.0000000205  0.000013  0.000028  0.000021  0.000000
                  ***Gradient check signals convergence***
              ***Rediagonalizing the Fockian in SOSCF/NRSCF***

               *****************************************************
               *                     SUCCESS                       *
               *           SCF CONVERGED AFTER  12 CYCLES          *
               *****************************************************


----------------
TOTAL SCF ENERGY
----------------

Total Energy       :         -152.97718258 Eh           -4162.72077 eV

Components:
Nuclear Repulsion  :           69.80387893 Eh            1899.46011 eV
Electronic Energy  :         -222.78106151 Eh           -6062.18088 eV
One Electron Energy:         -346.02461308 Eh           -9415.80841 eV
Two Electron Energy:          123.24355157 Eh            3353.62753 eV

Virial components:
Potential Energy   :         -305.71969089 Eh           -8319.05572 eV
Kinetic Energy     :          152.74250831 Eh            4156.33496 eV
Virial Ratio       :            2.00153640


---------------
SCF CONVERGENCE
---------------

  Last Energy change         ...   -3.1416e-09  Tolerance :   1.0000e-08
  Last MAX-Density change    ...    6.8017e-06  Tolerance :   1.0000e-07
  Last RMS-Density change    ...    1.2351e-07  Tolerance :   5.0000e-09
  Last Orbital Gradient      ...    1.2302e-06  Tolerance :   1.0000e-05
  Last Orbital Rotation      ...    3.2279e-06  Tolerance :   1.0000e-05

             **** THE GBW FILE WAS UPDATED (acetaldehyde_MP2_aug-cc-pVTZ_OPT.gbw) ****
             **** DENSITY FILE WAS UPDATED (acetaldehyde_MP2_aug-cc-pVTZ_OPT.scfp) ****
             **** ENERGY FILE WAS UPDATED (acetaldehyde_MP2_aug-cc-pVTZ_OPT.en.tmp) ****
             **** THE GBW FILE WAS UPDATED (acetaldehyde_MP2_aug-cc-pVTZ_OPT.gbw) ****
             **** DENSITY FILE WAS UPDATED (acetaldehyde_MP2_aug-cc-pVTZ_OPT.scfp) ****
----------------
ORBITAL ENERGIES
----------------

  NO   OCC          E(Eh)            E(eV) 
   0   2.0000     -20.560657      -559.4839 
   1   2.0000     -11.336517      -308.4823 
   2   2.0000     -11.242746      -305.9307 
   3   2.0000      -1.398535       -38.0561 
   4   2.0000      -1.022505       -27.8238 
   5   2.0000      -0.801812       -21.8184 
   6   2.0000      -0.676728       -18.4147 
   7   2.0000      -0.627086       -17.0639 
   8   2.0000      -0.605633       -16.4801 
   9   2.0000      -0.562878       -15.3167 
  10   2.0000      -0.507093       -13.7987 
  11   2.0000      -0.426597       -11.6083 
  12   0.0000       0.026385         0.7180 
  13   0.0000       0.038619         1.0509 
  14   0.0000       0.042392         1.1535 
  15   0.0000       0.053152         1.4463 
  16   0.0000       0.088593         2.4107 
  17   0.0000       0.093344         2.5400 
  18   0.0000       0.098198         2.6721 
  19   0.0000       0.120614         3.2821 
  20   0.0000       0.127797         3.4775 
  21   0.0000       0.128623         3.5000 
  22   0.0000       0.133793         3.6407 
  23   0.0000       0.141462         3.8494 
  24   0.0000       0.177128         4.8199 
  25   0.0000       0.193802         5.2736 
  26   0.0000       0.202904         5.5213 
  27   0.0000       0.221720         6.0333 
  28   0.0000       0.236265         6.4291 
  29   0.0000       0.237988         6.4760 
  30   0.0000       0.267704         7.2846 
  31   0.0000       0.278648         7.5824 
  32   0.0000       0.279215         7.5978 
  33   0.0000       0.294773         8.0212 
  34   0.0000       0.310106         8.4384 
  35   0.0000       0.325676         8.8621 
  36   0.0000       0.335950         9.1417 
  37   0.0000       0.337961         9.1964 
  38   0.0000       0.350936         9.5495 
  39   0.0000       0.361031         9.8242 
  40   0.0000       0.380596        10.3566 
  41   0.0000       0.389852        10.6084 
  42   0.0000       0.409147        11.1334 
  43   0.0000       0.414281        11.2732 
  44   0.0000       0.416638        11.3373 
  45   0.0000       0.431359        11.7379 
  46   0.0000       0.437491        11.9047 
  47   0.0000       0.438513        11.9326 
  48   0.0000       0.451791        12.2939 
  49   0.0000       0.474278        12.9058 
  50   0.0000       0.488174        13.2839 
  51   0.0000       0.522667        14.2225 
  52   0.0000       0.535021        14.5587 
  53   0.0000       0.538201        14.6452 
  54   0.0000       0.572646        15.5825 
  55   0.0000       0.582426        15.8486 
  56   0.0000       0.623835        16.9754 
  57   0.0000       0.674398        18.3513 
  58   0.0000       0.687493        18.7076 
  59   0.0000       0.723510        19.6877 
  60   0.0000       0.734698        19.9921 
  61   0.0000       0.759331        20.6624 
  62   0.0000       0.793808        21.6006 
  63   0.0000       0.801214        21.8021 
  64   0.0000       0.820915        22.3382 
  65   0.0000       0.824165        22.4267 
  66   0.0000       0.849659        23.1204 
  67   0.0000       0.861186        23.4341 
  68   0.0000       0.868991        23.6465 
  69   0.0000       0.877714        23.8838 
  70   0.0000       0.897236        24.4150 
  71   0.0000       0.902680        24.5632 
  72   0.0000       0.924746        25.1636 
  73   0.0000       0.949865        25.8471 
  74   0.0000       0.954106        25.9625 
  75   0.0000       0.954633        25.9769 
  76   0.0000       0.960648        26.1406 
  77   0.0000       0.978025        26.6134 
  78   0.0000       0.988432        26.8966 
  79   0.0000       1.014623        27.6093 
  80   0.0000       1.033854        28.1326 
  81   0.0000       1.044834        28.4314 
  82   0.0000       1.065384        28.9906 
  83   0.0000       1.066147        29.0113 
  84   0.0000       1.092159        29.7192 
  85   0.0000       1.110204        30.2102 
  86   0.0000       1.112759        30.2797 
  87   0.0000       1.132918        30.8283 
  88   0.0000       1.180444        32.1215 
  89   0.0000       1.187875        32.3237 
  90   0.0000       1.203373        32.7454 
  91   0.0000       1.203816        32.7575 
  92   0.0000       1.240784        33.7635 
  93   0.0000       1.269227        34.5374 
  94   0.0000       1.270764        34.5793 
  95   0.0000       1.288214        35.0541 
  96   0.0000       1.324243        36.0345 
  97   0.0000       1.352285        36.7976 
  98   0.0000       1.390683        37.8424 
  99   0.0000       1.416218        38.5373 
 100   0.0000       1.451496        39.4972 
 101   0.0000       1.467654        39.9369 
 102   0.0000       1.507091        41.0100 
 103   0.0000       1.522075        41.4178 
 104   0.0000       1.552947        42.2578 
 105   0.0000       1.575388        42.8685 
 106   0.0000       1.610348        43.8198 
 107   0.0000       1.639400        44.6103 
 108   0.0000       1.654456        45.0200 
 109   0.0000       1.669097        45.4184 
 110   0.0000       1.686138        45.8822 
 111   0.0000       1.689818        45.9823 
 112   0.0000       1.741280        47.3826 
 113   0.0000       1.745533        47.4984 
 114   0.0000       1.761533        47.9337 
 115   0.0000       1.776967        48.3537 
 116   0.0000       1.807725        49.1907 
 117   0.0000       1.860870        50.6369 
 118   0.0000       1.875749        51.0417 
 119   0.0000       1.880327        51.1663 
 120   0.0000       1.970865        53.6300 
 121   0.0000       1.972054        53.6623 
 122   0.0000       2.011172        54.7268 
 123   0.0000       2.068843        56.2961 
 124   0.0000       2.093957        56.9795 
 125   0.0000       2.141908        58.2843 
 126   0.0000       2.176039        59.2130 
 127   0.0000       2.206961        60.0545 
 128   0.0000       2.227977        60.6263 
 129   0.0000       2.244092        61.0649 
 130   0.0000       2.295784        62.4714 
 131   0.0000       2.363851        64.3237 
 132   0.0000       2.366728        64.4019 
 133   0.0000       2.457856        66.8817 
 134   0.0000       2.483071        67.5678 
 135   0.0000       2.485304        67.6285 
 136   0.0000       2.574260        70.0492 
 137   0.0000       2.587458        70.4083 
 138   0.0000       2.642800        71.9142 
 139   0.0000       2.734791        74.4175 
 140   0.0000       2.767517        75.3080 
 141   0.0000       2.826955        76.9254 
 142   0.0000       2.911259        79.2194 
 143   0.0000       2.915672        79.3395 
 144   0.0000       2.962577        80.6158 
 145   0.0000       3.035590        82.6026 
 146   0.0000       3.138769        85.4103 
 147   0.0000       3.186317        86.7041 
 148   0.0000       3.221303        87.6561 
 149   0.0000       3.325225        90.4840 
 150   0.0000       3.346870        91.0730 
 151   0.0000       3.381304        92.0100 
 152   0.0000       3.416951        92.9800 
 153   0.0000       3.486041        94.8600 
 154   0.0000       3.488879        94.9372 
 155   0.0000       3.503682        95.3400 
 156   0.0000       3.567831        97.0856 
 157   0.0000       3.583845        97.5214 
 158   0.0000       3.598590        97.9226 
 159   0.0000       3.599662        97.9518 
 160   0.0000       3.658663        99.5573 
 161   0.0000       3.697689       100.6192 
 162   0.0000       3.820010       103.9477 
 163   0.0000       3.850572       104.7794 
 164   0.0000       3.856345       104.9365 
 165   0.0000       3.864787       105.1662 
 166   0.0000       3.931325       106.9768 
 167   0.0000       3.935022       107.0774 
 168   0.0000       4.001832       108.8954 
 169   0.0000       4.005980       109.0083 
 170   0.0000       4.074415       110.8705 
 171   0.0000       4.082407       111.0879 
 172   0.0000       4.090007       111.2947 
 173   0.0000       4.129644       112.3733 
 174   0.0000       4.202043       114.3434 
 175   0.0000       4.204448       114.4088 
 176   0.0000       4.251101       115.6783 
 177   0.0000       4.310639       117.2984 
 178   0.0000       4.315115       117.4202 
 179   0.0000       4.330740       117.8454 
 180   0.0000       4.469336       121.6168 
 181   0.0000       4.475660       121.7889 
 182   0.0000       4.574964       124.4911 
 183   0.0000       4.606705       125.3548 
 184   0.0000       4.674385       127.1965 
 185   0.0000       4.735582       128.8617 
 186   0.0000       4.759068       129.5008 
 187   0.0000       4.805977       130.7773 
 188   0.0000       4.824884       131.2918 
 189   0.0000       4.878757       132.7577 
 190   0.0000       4.886038       132.9559 
 191   0.0000       4.906222       133.5051 
 192   0.0000       4.989791       135.7791 
 193   0.0000       5.062092       137.7465 
 194   0.0000       5.077836       138.1749 
 195   0.0000       5.096270       138.6766 
 196   0.0000       5.214749       141.9005 
 197   0.0000       5.223354       142.1347 
 198   0.0000       5.275165       143.5445 
 199   0.0000       5.322007       144.8192 
 200   0.0000       5.360964       145.8792 
 201   0.0000       5.501963       149.7160 
 202   0.0000       5.512980       150.0158 
 203   0.0000       5.618885       152.8976 
 204   0.0000       5.656884       153.9316 
 205   0.0000       5.673293       154.3781 
 206   0.0000       5.831098       158.6722 
 207   0.0000       5.944646       161.7621 
 208   0.0000       6.043401       164.4493 
 209   0.0000       6.094872       165.8499 
 210   0.0000       6.184757       168.2958 
 211   0.0000       6.276755       170.7992 
 212   0.0000       6.397113       174.0743 
 213   0.0000       6.629181       180.3892 
 214   0.0000       6.656235       181.1254 
 215   0.0000       6.675183       181.6410 
 216   0.0000       6.691828       182.0939 
 217   0.0000       6.972946       189.7435 
 218   0.0000       7.013108       190.8364 
 219   0.0000       7.199222       195.9008 
 220   0.0000       7.288552       198.3316 
 221   0.0000       7.320938       199.2129 
 222   0.0000       7.515312       204.5020 
 223   0.0000       7.610495       207.0921 
 224   0.0000       7.635211       207.7647 
 225   0.0000       7.794858       212.1089 
 226   0.0000       7.855530       213.7598 
 227   0.0000      15.373259       418.3276 
 228   0.0000      16.661724       453.3886 
 229   0.0000      18.115714       492.9536 

                    ********************************
                    * MULLIKEN POPULATION ANALYSIS *
                    ********************************

-----------------------
MULLIKEN ATOMIC CHARGES
-----------------------
   0 C :   -0.695875
   1 C :   -0.071257
   2 O :   -0.624133
   3 H :    0.318652
   4 H :    0.293031
   5 H :    0.292964
   6 H :    0.486618
Sum of atomic charges:    0.0000000

--------------------------------
MULLIKEN REDUCED ORBITAL CHARGES
--------------------------------
  0 C s       :     3.133351  s :     3.133351
      pz      :     1.220201  p :     3.424283
      px      :     0.934193
      py      :     1.269889
      dz2     :     0.024686  d :     0.132289
      dxz     :     0.029351
      dyz     :     0.043179
      dx2y2   :     0.028168
      dxy     :     0.006906
      f0      :     0.000498  f :     0.005951
      f+1     :    -0.001191
      f-1     :     0.000061
      f+2     :     0.002957
      f-2     :     0.000981
      f+3     :     0.002821
      f-3     :    -0.000177
  1 C s       :     3.482812  s :     3.482812
      pz      :     0.647694  p :     2.383096
      px      :     0.875865
      py      :     0.859538
      dz2     :     0.004935  d :     0.169865
      dxz     :     0.025528
      dyz     :     0.035510
      dx2y2   :     0.100064
      dxy     :     0.003829
      f0      :     0.001914  f :     0.035484
      f+1     :     0.002178
      f-1     :     0.001829
      f+2     :     0.005038
      f-2     :     0.004187
      f+3     :     0.005242
      f-3     :     0.015095
  2 O s       :     3.974784  s :     3.974784
      pz      :     1.412073  p :     4.594844
      px      :     1.704630
      py      :     1.478141
      dz2     :     0.003952  d :     0.049869
      dxz     :     0.008225
      dyz     :     0.012850
      dx2y2   :     0.015007
      dxy     :     0.009835
      f0      :     0.000344  f :     0.004636
      f+1     :     0.000306
      f-1     :     0.000353
      f+2     :     0.000242
      f-2     :     0.001148
      f+3     :     0.000876
      f-3     :     0.001366
  3 H s       :     0.630735  s :     0.630735
      pz      :     0.016128  p :     0.045486
      px      :     0.016428
      py      :     0.012930
      dz2     :     0.001093  d :     0.005127
      dxz     :     0.000242
      dyz     :     0.001088
      dx2y2   :     0.001303
      dxy     :     0.001402
  4 H s       :     0.652109  s :     0.652109
      pz      :     0.016642  p :     0.048551
      px      :     0.013159
      py      :     0.018750
      dz2     :     0.001430  d :     0.006309
      dxz     :    -0.000221
      dyz     :     0.002926
      dx2y2   :     0.001742
      dxy     :     0.000432
  5 H s       :     0.652212  s :     0.652212
      pz      :     0.017901  p :     0.048515
      px      :     0.010398
      py      :     0.020217
      dz2     :     0.002755  d :     0.006308
      dxz     :     0.000518
      dyz     :    -0.001011
      dx2y2   :     0.002281
      dxy     :     0.001766
  6 H s       :     0.528770  s :     0.528770
      pz      :    -0.006651  p :    -0.014799
      px      :     0.012787
      py      :    -0.020935
      dz2     :    -0.000819  d :    -0.000589
      dxz     :     0.000484
      dyz     :    -0.001539
      dx2y2   :    -0.001460
      dxy     :     0.002745


                     *******************************
                     * LOEWDIN POPULATION ANALYSIS *
                     *******************************

----------------------
LOEWDIN ATOMIC CHARGES
----------------------
   0 C :    0.562916
   1 C :   -0.242450
   2 O :    0.422174
   3 H :   -0.187635
   4 H :   -0.184576
   5 H :   -0.184435
   6 H :   -0.185994

-------------------------------
LOEWDIN REDUCED ORBITAL CHARGES
-------------------------------
  0 C s       :     2.476144  s :     2.476144
      pz      :     0.770052  p :     2.303118
      px      :     0.752819
      py      :     0.780247
      dz2     :     0.070635  d :     0.482972
      dxz     :     0.100538
      dyz     :     0.079363
      dx2y2   :     0.128509
      dxy     :     0.103927
      f0      :     0.019267  f :     0.174851
      f+1     :     0.026052
      f-1     :     0.006842
      f+2     :     0.027935
      f-2     :     0.014227
      f+3     :     0.029050
      f-3     :     0.051478
  1 C s       :     2.540290  s :     2.540290
      pz      :     0.523651  p :     2.177900
      px      :     0.833603
      py      :     0.820646
      dz2     :     0.077117  d :     1.044541
      dxz     :     0.167747
      dyz     :     0.138450
      dx2y2   :     0.353780
      dxy     :     0.307447
      f0      :     0.040910  f :     0.479718
      f+1     :     0.031914
      f-1     :     0.030566
      f+2     :     0.057084
      f-2     :     0.060774
      f+3     :     0.092307
      f-3     :     0.166163
  2 O s       :     3.222719  s :     3.222719
      pz      :     1.177022  p :     4.065435
      px      :     1.473387
      py      :     1.415026
      dz2     :     0.022791  d :     0.216121
      dxz     :     0.013855
      dyz     :     0.034418
      dx2y2   :     0.084927
      dxy     :     0.060131
      f0      :     0.005308  f :     0.073550
      f+1     :     0.005212
      f-1     :     0.006043
      f+2     :     0.005689
      f-2     :     0.009367
      f+3     :     0.014694
      f-3     :     0.027238
  3 H s       :     0.647899  s :     0.647899
      pz      :     0.092831  p :     0.310256
      px      :     0.083228
      py      :     0.134198
      dz2     :     0.036780  d :     0.229479
      dxz     :     0.016762
      dyz     :     0.060628
      dx2y2   :     0.066552
      dxy     :     0.048757
  4 H s       :     0.643298  s :     0.643298
      pz      :     0.136173  p :     0.313326
      px      :     0.088728
      py      :     0.088426
      dz2     :     0.066168  d :     0.227953
      dxz     :     0.045319
      dyz     :     0.073433
      dx2y2   :     0.030858
      dxy     :     0.012174
  5 H s       :     0.643330  s :     0.643330
      pz      :     0.111087  p :     0.313209
      px      :     0.080306
      py      :     0.121816
      dz2     :     0.065511  d :     0.227896
      dxz     :     0.029614
      dyz     :     0.040879
      dx2y2   :     0.052599
      dxy     :     0.039293
  6 H s       :     0.713882  s :     0.713882
      pz      :     0.063698  p :     0.271194
      px      :     0.081564
      py      :     0.125932
      dz2     :     0.028728  d :     0.200918
      dxz     :     0.017252
      dyz     :     0.049156
      dx2y2   :     0.056976
      dxy     :     0.048805


                      *****************************
                      * MAYER POPULATION ANALYSIS *
                      *****************************

  NA   - Mulliken gross atomic population
  ZA   - Total nuclear charge
  QA   - Mulliken gross atomic charge
  VA   - Mayer's total valence
  BVA  - Mayer's bonded valence
  FA   - Mayer's free valence

  ATOM       NA         ZA         QA         VA         BVA        FA
  0 C      6.6959     6.0000    -0.6959     3.6371     3.6371     0.0000
  1 C      6.0713     6.0000    -0.0713     3.3037     3.3037    -0.0000
  2 O      8.6241     8.0000    -0.6241     1.6722     1.6722    -0.0000
  3 H      0.6813     1.0000     0.3187     0.9950     0.9950     0.0000
  4 H      0.7070     1.0000     0.2930     1.0092     1.0092     0.0000
  5 H      0.7070     1.0000     0.2930     1.0090     1.0090     0.0000
  6 H      0.5134     1.0000     0.4866     0.6841     0.6841    -0.0000

  Mayer bond orders larger than 0.100000
B(  0-C ,  1-C ) :   0.8886 B(  0-C ,  3-H ) :   0.9027 B(  0-C ,  4-H ) :   0.9155 
B(  0-C ,  5-H ) :   0.9157 B(  1-C ,  2-O ) :   1.6845 B(  1-C ,  6-H ) :   0.6861 


-------
TIMINGS
-------

Total SCF time: 0 days 0 hours 0 min 9 sec 

Total time                  ....       9.935 sec
Sum of individual times     ....       9.651 sec  ( 97.1%)

Fock matrix formation       ....       9.197 sec  ( 92.6%)
Diagonalization             ....       0.100 sec  (  1.0%)
Density matrix formation    ....       0.012 sec  (  0.1%)
Population analysis         ....       0.012 sec  (  0.1%)
Initial guess               ....       0.119 sec  (  1.2%)
Orbital Transformation      ....       0.000 sec  (  0.0%)
Orbital Orthonormalization  ....       0.000 sec  (  0.0%)
DIIS solution               ....       0.055 sec  (  0.6%)
SOSCF solution              ....       0.141 sec  (  1.4%)


           ************************************************************
           *        Program running with 16 parallel MPI-processes    *
           *              working on a common directory               *
           ************************************************************

------------------------------------------------------------------------------
                                ORCA  MP2 
------------------------------------------------------------------------------

Freezing NCore=6 chemical core electrons
MP2 will be done in the AO integral direct mode
The Q1-step will be done using symmetric double matrices
Dimension of the basis                    ...  230
Memory devoted for MP2                    ... 1000 MB   
Memory needed for all in one shot         ...   48 MB
Number of MOs that can be treated together...   20      
MP2 density construction                  ... relaxed
The MP2 gradient is requested => amplitudes will be stored on disk
Total number of MOs              ...    9
Number of MOs treated per batch  ...    1 
Number of batches necessary      ...    1 
OPERATORS   0/  0 PASS   0
-----------------------------------------------
 MP2 CORRELATION ENERGY   :     -0.576921894 Eh
-----------------------------------------------


---------------------
MP2 DENSITY FORMATION
---------------------

Completing the external part of the density      ... done
Storing the unrelaxed density                    ... done

Calculating G(D)                                 ... done
Completing the Lagrangian                        ... done
Solving the Z-vector equations                   ... 

------------------------------------------------------------------------------
                           ORCA CP-SCF CALCULATION
------------------------------------------------------------------------------

Input orbitals are from        ... acetaldehyde_MP2_aug-cc-pVTZ_OPT.gbw
Input Perturbation             ... acetaldehyde_MP2_aug-cc-pVTZ_OPT.pin.tmp
Wavefunction output            ... acetaldehyde_MP2_aug-cc-pVTZ_OPT.pout.tmp
Perturbation mode              ... Real perturbation (singlet)
Solver                         ... POPLE
Max. number of iterations      ... 128
Convergence tolerance          ... 1.000e-08
Integral handling              ... Direct
Number of perturbations        ... 1
Number of operators            ... 1
Orbital ranges used for CP-SCF:
 Operator 0:  Orbitals   0... 11  to  12...229
Variables per vector in CP-SCF ... 2616
Number of vectors sought       ... 1
     CP-SCF ITERATION   0: 
     CP-SCF ITERATION   1:      0.000596030777
     CP-SCF ITERATION   2:      0.000100511420
     CP-SCF ITERATION   3:      0.000004338715
     CP-SCF ITERATION   4:      0.000000405081
     CP-SCF ITERATION   5:      0.000000057326
     CP-SCF ITERATION   6:      0.000000004400
                                                 ... done
Finalizing the relaxed density                   ... done
Transforming P to the AO basis                   ... done
Storing the relaxed density                      ... done

------------------------------------
ENERGY WEIGHTED DENSITY FINALIZATION
------------------------------------

Gathering the parts of the W-matrix              ...                                                      done
Forming the Z-density                            ... done
Transforming Z to the AO basis                   ... done
Calculating G(Z)                                 ... done
Finalizing the W-matrix                          ...                                                      done
Transforming W to the AO basis and storing       ... done

                *********************************************
                * UNRELAXED MP2 DENSITY POPULATION ANALYSIS *
                *********************************************

------------------------------------------------------------------------------
                           ORCA POPULATION ANALYSIS
------------------------------------------------------------------------------
Input electron density              ... acetaldehyde_MP2_aug-cc-pVTZ_OPT.pmp2ur
BaseName (.gbw .S,...)              ... acetaldehyde_MP2_aug-cc-pVTZ_OPT

                    ********************************
                    * MULLIKEN POPULATION ANALYSIS *
                    ********************************

-----------------------
MULLIKEN ATOMIC CHARGES
-----------------------
   0 C :   -0.697100
   1 C :   -0.080114
   2 O :   -0.600238
   3 H :    0.316078
   4 H :    0.291449
   5 H :    0.291384
   6 H :    0.478542
Sum of atomic charges:    0.0000000

--------------------------------
MULLIKEN REDUCED ORBITAL CHARGES
--------------------------------
  0 C s       :     3.131917  s :     3.131917
      pz      :     1.209500  p :     3.396993
      px      :     0.929232
      py      :     1.258261
      dz2     :     0.029470  d :     0.158550
      dxz     :     0.035021
      dyz     :     0.047685
      dx2y2   :     0.031858
      dxy     :     0.014516
      f0      :     0.001013  f :     0.009641
      f+1     :    -0.000671
      f-1     :     0.000566
      f+2     :     0.003265
      f-2     :     0.001678
      f+3     :     0.003289
      f-3     :     0.000502
  1 C s       :     3.473547  s :     3.473547
      pz      :     0.658454  p :     2.386922
      px      :     0.870836
      py      :     0.857632
      dz2     :     0.007684  d :     0.181963
      dxz     :     0.028145
      dyz     :     0.037812
      dx2y2   :     0.102859
      dxy     :     0.005463
      f0      :     0.002122  f :     0.037681
      f+1     :     0.002524
      f-1     :     0.002120
      f+2     :     0.005546
      f-2     :     0.004280
      f+3     :     0.005605
      f-3     :     0.015483
  2 O s       :     3.970984  s :     3.970984
      pz      :     1.394090  p :     4.542613
      px      :     1.686331
      py      :     1.462192
      dz2     :     0.009372  d :     0.078118
      dxz     :     0.013900
      dyz     :     0.018091
      dx2y2   :     0.021175
      dxy     :     0.015580
      f0      :     0.000857  f :     0.008523
      f+1     :     0.000834
      f-1     :     0.000887
      f+2     :     0.000842
      f-2     :     0.001659
      f+3     :     0.001485
      f-3     :     0.001959
  3 H s       :     0.632679  s :     0.632679
      pz      :     0.016946  p :     0.045735
      px      :     0.017066
      py      :     0.011723
      dz2     :     0.001165  d :     0.005508
      dxz     :     0.000367
      dyz     :     0.001119
      dx2y2   :     0.001325
      dxy     :     0.001532
  4 H s       :     0.652821  s :     0.652821
      pz      :     0.015560  p :     0.049195
      px      :     0.013889
      py      :     0.019747
      dz2     :     0.001453  d :     0.006535
      dxz     :    -0.000130
      dyz     :     0.002925
      dx2y2   :     0.001766
      dxy     :     0.000522
  5 H s       :     0.652920  s :     0.652920
      pz      :     0.018048  p :     0.049162
      px      :     0.011600
      py      :     0.019514
      dz2     :     0.002755  d :     0.006534
      dxz     :     0.000613
      dyz     :    -0.000937
      dx2y2   :     0.002289
      dxy     :     0.001813
  6 H s       :     0.531858  s :     0.531858
      pz      :    -0.004518  p :    -0.010618
      px      :     0.013854
      py      :    -0.019954
      dz2     :    -0.000691  d :     0.000218
      dxz     :     0.000575
      dyz     :    -0.001354
      dx2y2   :    -0.001206
      dxy     :     0.002893


                     *******************************
                     * LOEWDIN POPULATION ANALYSIS *
                     *******************************

----------------------
LOEWDIN ATOMIC CHARGES
----------------------
   0 C :    0.553366
   1 C :   -0.245060
   2 O :    0.429871
   3 H :   -0.185829
   4 H :   -0.182510
   5 H :   -0.182372
   6 H :   -0.187465

-------------------------------
LOEWDIN REDUCED ORBITAL CHARGES
-------------------------------
  0 C s       :     2.474522  s :     2.474522
      pz      :     0.764399  p :     2.286764
      px      :     0.747617
      py      :     0.774748
      dz2     :     0.074714  d :     0.503472
      dxz     :     0.105221
      dyz     :     0.083402
      dx2y2   :     0.132182
      dxy     :     0.107952
      f0      :     0.020194  f :     0.181877
      f+1     :     0.027330
      f-1     :     0.007727
      f+2     :     0.029144
      f-2     :     0.015136
      f+3     :     0.030275
      f-3     :     0.052072
  1 C s       :     2.538188  s :     2.538188
      pz      :     0.527789  p :     2.173955
      px      :     0.829002
      py      :     0.817163
      dz2     :     0.080175  d :     1.050369
      dxz     :     0.168322
      dyz     :     0.139599
      dx2y2   :     0.353690
      dxy     :     0.308582
      f0      :     0.041357  f :     0.482548
      f+1     :     0.032657
      f-1     :     0.031105
      f+2     :     0.057440
      f-2     :     0.061181
      f+3     :     0.094033
      f-3     :     0.164774
  2 O s       :     3.218743  s :     3.218743
      pz      :     1.164456  p :     4.025447
      px      :     1.459460
      py      :     1.401532
      dz2     :     0.028659  d :     0.246543
      dxz     :     0.020179
      dyz     :     0.040715
      dx2y2   :     0.090411
      dxy     :     0.066579
      f0      :     0.006120  f :     0.079396
      f+1     :     0.005891
      f-1     :     0.006942
      f+2     :     0.006379
      f-2     :     0.010428
      f+3     :     0.015724
      f-3     :     0.027913
  3 H s       :     0.642465  s :     0.642465
      pz      :     0.093808  p :     0.314459
      px      :     0.084570
      py      :     0.136081
      dz2     :     0.036649  d :     0.228905
      dxz     :     0.016967
      dyz     :     0.060322
      dx2y2   :     0.066227
      dxy     :     0.048741
  4 H s       :     0.637847  s :     0.637847
      pz      :     0.138100  p :     0.317517
      px      :     0.090160
      py      :     0.089257
      dz2     :     0.065902  d :     0.227146
      dxz     :     0.045498
      dyz     :     0.072638
      dx2y2   :     0.030673
      dxy     :     0.012436
  5 H s       :     0.637879  s :     0.637879
      pz      :     0.112400  p :     0.317402
      px      :     0.081445
      py      :     0.123557
      dz2     :     0.064768  d :     0.227091
      dxz     :     0.029581
      dyz     :     0.041263
      dx2y2   :     0.052327
      dxy     :     0.039152
  6 H s       :     0.707981  s :     0.707981
      pz      :     0.065875  p :     0.277851
      px      :     0.083049
      py      :     0.128927
      dz2     :     0.028941  d :     0.201633
      dxz     :     0.017540
      dyz     :     0.049223
      dx2y2   :     0.056924
      dxy     :     0.049006


                      *****************************
                      * MAYER POPULATION ANALYSIS *
                      *****************************

  NA   - Mulliken gross atomic population
  ZA   - Total nuclear charge
  QA   - Mulliken gross atomic charge
  VA   - Mayer's total valence
  BVA  - Mayer's bonded valence
  FA   - Mayer's free valence

  ATOM       NA         ZA         QA         VA         BVA        FA
  0 C      6.6971     6.0000    -0.6971     3.7660     3.4492     0.3168
  1 C      6.0801     6.0000    -0.0801     3.3816     3.0635     0.3180
  2 O      8.6002     8.0000    -0.6002     1.9862     1.5148     0.4715
  3 H      0.6839     1.0000     0.3161     0.9981     0.9498     0.0482
  4 H      0.7086     1.0000     0.2914     1.0113     0.9628     0.0486
  5 H      0.7086     1.0000     0.2914     1.0112     0.9626     0.0486
  6 H      0.5215     1.0000     0.4785     0.6965     0.6454     0.0511

  Mayer bond orders larger than 0.100000
B(  0-C ,  1-C ) :   0.8332 B(  0-C ,  3-H ) :   0.8617 B(  0-C ,  4-H ) :   0.8734 
B(  0-C ,  5-H ) :   0.8736 B(  1-C ,  2-O ) :   1.5358 B(  1-C ,  6-H ) :   0.6531 



                *******************************************
                * RELAXED MP2 DENSITY POPULATION ANALYSIS *
                *******************************************

------------------------------------------------------------------------------
                           ORCA POPULATION ANALYSIS
------------------------------------------------------------------------------
Input electron density              ... acetaldehyde_MP2_aug-cc-pVTZ_OPT.pmp2re
BaseName (.gbw .S,...)              ... acetaldehyde_MP2_aug-cc-pVTZ_OPT

                    ********************************
                    * MULLIKEN POPULATION ANALYSIS *
                    ********************************

-----------------------
MULLIKEN ATOMIC CHARGES
-----------------------
   0 C :   -0.753035
   1 C :   -0.138566
   2 O :   -0.525632
   3 H :    0.330618
   4 H :    0.307955
   5 H :    0.307896
   6 H :    0.470764
Sum of atomic charges:    0.0000000

--------------------------------
MULLIKEN REDUCED ORBITAL CHARGES
--------------------------------
  0 C s       :     3.163130  s :     3.163130
      pz      :     1.222423  p :     3.440336
      px      :     0.949955
      py      :     1.267959
      dz2     :     0.025803  d :     0.141438
      dxz     :     0.033601
      dyz     :     0.042036
      dx2y2   :     0.025771
      dxy     :     0.014227
      f0      :     0.000783  f :     0.008131
      f+1     :    -0.000750
      f-1     :     0.000552
      f+2     :     0.002800
      f-2     :     0.001615
      f+3     :     0.003028
      f-3     :     0.000103
  1 C s       :     3.465726  s :     3.465726
      pz      :     0.720914  p :     2.452476
      px      :     0.870582
      py      :     0.860980
      dz2     :     0.007018  d :     0.193478
      dxz     :     0.026783
      dyz     :     0.035156
      dx2y2   :     0.110174
      dxy     :     0.014348
      f0      :     0.001746  f :     0.026885
      f+1     :     0.001980
      f-1     :     0.001583
      f+2     :     0.004498
      f-2     :     0.002699
      f+3     :     0.003370
      f-3     :     0.011008
  2 O s       :     3.983413  s :     3.983413
      pz      :     1.351005  p :     4.457045
      px      :     1.660664
      py      :     1.445376
      dz2     :     0.009115  d :     0.076687
      dxz     :     0.013089
      dyz     :     0.017440
      dx2y2   :     0.022406
      dxy     :     0.014636
      f0      :     0.000811  f :     0.008487
      f+1     :     0.000853
      f-1     :     0.000812
      f+2     :     0.000876
      f-2     :     0.001610
      f+3     :     0.001417
      f-3     :     0.002108
  3 H s       :     0.617784  s :     0.617784
      pz      :     0.017117  p :     0.046609
      px      :     0.017225
      py      :     0.012267
      dz2     :     0.001024  d :     0.004989
      dxz     :     0.000297
      dyz     :     0.000996
      dx2y2   :     0.001125
      dxy     :     0.001547
  4 H s       :     0.635467  s :     0.635467
      pz      :     0.016511  p :     0.050766
      px      :     0.014117
      py      :     0.020138
      dz2     :     0.001323  d :     0.005811
      dxz     :    -0.000275
      dyz     :     0.002673
      dx2y2   :     0.001622
      dxy     :     0.000469
  5 H s       :     0.635559  s :     0.635559
      pz      :     0.018823  p :     0.050735
      px      :     0.012521
      py      :     0.019391
      dz2     :     0.002597  d :     0.005811
      dxz     :     0.000551
      dyz     :    -0.000993
      dx2y2   :     0.002114
      dxy     :     0.001541
  6 H s       :     0.539954  s :     0.539954
      pz      :    -0.003942  p :    -0.009552
      px      :     0.013923
      py      :    -0.019534
      dz2     :    -0.000846  d :    -0.001165
      dxz     :     0.000476
      dyz     :    -0.001707
      dx2y2   :    -0.001513
      dxy     :     0.002425


                     *******************************
                     * LOEWDIN POPULATION ANALYSIS *
                     *******************************

----------------------
LOEWDIN ATOMIC CHARGES
----------------------
   0 C :    0.540341
   1 C :   -0.255477
   2 O :    0.463007
   3 H :   -0.187803
   4 H :   -0.182198
   5 H :   -0.182054
   6 H :   -0.195816

-------------------------------
LOEWDIN REDUCED ORBITAL CHARGES
-------------------------------
  0 C s       :     2.480303  s :     2.480303
      pz      :     0.771010  p :     2.308039
      px      :     0.755541
      py      :     0.781487
      dz2     :     0.071620  d :     0.489447
      dxz     :     0.105350
      dyz     :     0.078345
      dx2y2   :     0.126033
      dxy     :     0.108099
      f0      :     0.020363  f :     0.181870
      f+1     :     0.027311
      f-1     :     0.007623
      f+2     :     0.030031
      f-2     :     0.014489
      f+3     :     0.029980
      f-3     :     0.052072
  1 C s       :     2.543074  s :     2.543074
      pz      :     0.559163  p :     2.204442
      px      :     0.826095
      py      :     0.819184
      dz2     :     0.078283  d :     1.044063
      dxz     :     0.164075
      dyz     :     0.132319
      dx2y2   :     0.357757
      dxy     :     0.311628
      f0      :     0.039213  f :     0.463899
      f+1     :     0.031639
      f-1     :     0.029967
      f+2     :     0.055950
      f-2     :     0.057647
      f+3     :     0.091587
      f-3     :     0.157896
  2 O s       :     3.224173  s :     3.224173
      pz      :     1.143620  p :     3.981566
      px      :     1.444838
      py      :     1.393108
      dz2     :     0.028896  d :     0.249965
      dxz     :     0.021059
      dyz     :     0.041920
      dx2y2   :     0.091994
      dxy     :     0.066096
      f0      :     0.006508  f :     0.081288
      f+1     :     0.005989
      f-1     :     0.007332
      f+2     :     0.006346
      f-2     :     0.011362
      f+3     :     0.015968
      f-3     :     0.027784
  3 H s       :     0.637310  s :     0.637310
      pz      :     0.095895  p :     0.320977
      px      :     0.088347
      py      :     0.136735
      dz2     :     0.036540  d :     0.229517
      dxz     :     0.017176
      dyz     :     0.059907
      dx2y2   :     0.066162
      dxy     :     0.049732
  4 H s       :     0.630753  s :     0.630753
      pz      :     0.138703  p :     0.324535
      px      :     0.093899
      py      :     0.091933
      dz2     :     0.066042  d :     0.226909
      dxz     :     0.046104
      dyz     :     0.071806
      dx2y2   :     0.030065
      dxy     :     0.012893
  5 H s       :     0.630782  s :     0.630782
      pz      :     0.113987  p :     0.324417
      px      :     0.085509
      py      :     0.124920
      dz2     :     0.064269  d :     0.226855
      dxz     :     0.029628
      dyz     :     0.041385
      dx2y2   :     0.051900
      dxy     :     0.039674
  6 H s       :     0.704634  s :     0.704634
      pz      :     0.069455  p :     0.287889
      px      :     0.085068
      py      :     0.133366
      dz2     :     0.029828  d :     0.203293
      dxz     :     0.017703
      dyz     :     0.049673
      dx2y2   :     0.056780
      dxy     :     0.049309


                      *****************************
                      * MAYER POPULATION ANALYSIS *
                      *****************************

  NA   - Mulliken gross atomic population
  ZA   - Total nuclear charge
  QA   - Mulliken gross atomic charge
  VA   - Mayer's total valence
  BVA  - Mayer's bonded valence
  FA   - Mayer's free valence

  ATOM       NA         ZA         QA         VA         BVA        FA
  0 C      6.7530     6.0000    -0.7530     3.7603     3.4472     0.3130
  1 C      6.1386     6.0000    -0.1386     3.4882     3.1807     0.3075
  2 O      8.5256     8.0000    -0.5256     2.0797     1.6232     0.4565
  3 H      0.6694     1.0000     0.3306     0.9842     0.9363     0.0479
  4 H      0.6920     1.0000     0.3080     1.0012     0.9536     0.0476
  5 H      0.6921     1.0000     0.3079     1.0011     0.9535     0.0476
  6 H      0.5292     1.0000     0.4708     0.7064     0.6560     0.0504

  Mayer bond orders larger than 0.100000
B(  0-C ,  1-C ) :   0.8656 B(  0-C ,  3-H ) :   0.8490 B(  0-C ,  4-H ) :   0.8545 
B(  0-C ,  5-H ) :   0.8547 B(  1-C ,  2-O ) :   1.6161 B(  1-C ,  6-H ) :   0.6491 



----------------------------------
MP2 DERIVATIVE INTEGRAL GENERATION
----------------------------------


Input Wavefunction Amplitudes       ... acetaldehyde_MP2_aug-cc-pVTZ_OPT.mp2tsaa.tmp
Input Correlated Electron Density   ... acetaldehyde_MP2_aug-cc-pVTZ_OPT.pmp2re
Input Energy Weighted Density       ... acetaldehyde_MP2_aug-cc-pVTZ_OPT.wmp2.tmp
Input SCF Electron Density          ... acetaldehyde_MP2_aug-cc-pVTZ_OPT.scfp

One-Electron Terms    ...
                        ... One-Electron Terms done
Prescreening matrices              ... done

Batch handling in the gradient evaluation:
Memory available                      ... 1000.0 MB
Memory per occupied orbital in Q2     ...    3.6 MB
Memory per occupied orbital in Q3     ...    0.1 MB
Total memory requirement per |i>      ...    3.7 MB
Max. Number of orbitals possible      ...    268
Number of orbitals treated per batch  ...      9
Number of batches to be done          ...      1
Batch   0: i=    3 ...    11

---------------------------------------
MP2 TOTAL ENERGY:     -153.554104472 Eh
---------------------------------------

-----------------------------------
NORM OF THE MP2 GRADIENT:  0.026461
-----------------------------------

-------------------------   --------------------
FINAL SINGLE POINT ENERGY      -153.554104472155
-------------------------   --------------------

------------------------------------------------------------------------------
                         ORCA GEOMETRY RELAXATION STEP
------------------------------------------------------------------------------

Reading the OPT-File                    .... done
Getting information on internals        .... done
Copying old internal coords+grads       .... done
Making the new internal coordinates     .... (new redundants).... done
Validating the new internal coordinates .... (new redundants).... done
Calculating the B-matrix                .... done
Calculating the G,G- and P matrices     .... done
Transforming gradient to internals      .... done
Projecting the internal gradient        .... done
Number of atoms                         ....   7
Number of internal coordinates          ....  21
Current Energy                          ....  -153.554104472 Eh
Current gradient norm                   ....     0.026460595 Eh/bohr
Maximum allowed component of the step   ....  0.300
Current trust radius                    ....  0.300
Evaluating the initial hessian          ....  (Almloef) done
Projecting the Hessian                  .... done
Forming the augmented Hessian           .... done
Diagonalizing the augmented Hessian     .... done
Last element of RFO vector              ....  0.999808122
Lowest eigenvalues of augmented Hessian:
 -0.000311846  0.012718039  0.012718043  0.134332155  0.139766866
Length of the computed step             ....  0.019592489
The final length of the internal step   ....  0.019592489
Converting the step to cartesian space:
 Initial RMS(Int)=    0.0042754316
Transforming coordinates:
 Iter   0:  RMS(Cart)=    0.0034484555 RMS(Int)=    0.0042752229
 Iter   1:  RMS(Cart)=    0.0000029712 RMS(Int)=    0.0000028872
 Iter   2:  RMS(Cart)=    0.0000000073 RMS(Int)=    0.0000000072
done
Storing new coordinates                 .... done

                                .--------------------.
          ----------------------|Geometry convergence|-------------------------
          Item                value                   Tolerance       Converged
          ---------------------------------------------------------------------
          RMS gradient        0.0038226874            0.0001000000      NO
          MAX gradient        0.0169938113            0.0003000000      NO
          RMS step            0.0042754316            0.0020000000      NO
          MAX step            0.0153101110            0.0040000000      NO
          ........................................................
          Max(Bonds)      0.0081      Max(Angles)    0.17
          Max(Dihed)        0.04      Max(Improp)    0.00
          ---------------------------------------------------------------------

The optimization has not yet converged - more geometry cycles are needed


    ---------------------------------------------------------------------------
                         Redundant Internal Coordinates
                            (Angstroem and degrees)

        Definition                    Value    dE/dq     Step     New-Value
    ----------------------------------------------------------------------------
     1. B(C   1,C   0)                1.5017  0.001596 -0.0020    1.4996   
     2. B(O   2,C   1)                1.2036 -0.016994  0.0081    1.2117   
     3. B(H   3,C   0)                1.0878  0.001087 -0.0016    1.0863   
     4. B(H   4,C   0)                1.0935  0.001574 -0.0023    1.0912   
     5. B(H   5,C   0)                1.0937  0.001693 -0.0025    1.0911   
     6. B(H   6,C   1)                1.1110  0.002380 -0.0038    1.1073   
     7. A(H   3,C   0,H   4)          110.06 -0.000508    0.09    110.15   
     8. A(C   1,C   0,H   4)          109.56  0.000862   -0.15    109.41   
     9. A(C   1,C   0,H   3)          110.85  0.000122   -0.03    110.82   
    10. A(C   1,C   0,H   5)          109.55  0.000776   -0.14    109.41   
    11. A(H   3,C   0,H   5)          110.12 -0.000421    0.07    110.19   
    12. A(H   4,C   0,H   5)          106.61 -0.000853    0.17    106.78   
    13. A(O   2,C   1,H   6)          120.29 -0.000136    0.01    120.30   
    14. A(C   0,C   1,H   6)          114.94 -0.000558    0.09    115.03   
    15. A(C   0,C   1,O   2)          124.77  0.000694   -0.10    124.67   
    16. D(O   2,C   1,C   0,H   4)    121.55  0.000032   -0.00    121.55   
    17. D(O   2,C   1,C   0,H   5)   -121.83 -0.000056    0.04   -121.79   
    18. D(H   6,C   1,C   0,H   3)    179.90  0.000015    0.00    179.90   
    19. D(H   6,C   1,C   0,H   4)    -58.44  0.000033   -0.01    -58.45   
    20. D(H   6,C   1,C   0,H   5)     58.17 -0.000055    0.04     58.21   
    21. D(O   2,C   1,C   0,H   3)     -0.10  0.000014    0.01     -0.09   
    ----------------------------------------------------------------------------

         *************************************************************
         *                GEOMETRY OPTIMIZATION CYCLE   2            *
         *************************************************************
---------------------------------
CARTESIAN COORDINATES (ANGSTROEM)
---------------------------------
  C      1.445235   -0.022917   -0.257396
  C     -0.039533    0.031827   -0.054007
  O     -0.735976    0.988933   -0.313333
  H      1.812951    0.911890   -0.670759
  H      1.934360   -0.230651    0.695620
  H      1.689522   -0.851422   -0.924092
  H     -0.489309   -0.889281    0.364686

----------------------------
CARTESIAN COORDINATES (A.U.)
----------------------------
  NO LB      ZA    FRAG     MASS         X           Y           Z
   0 C     6.0000    0    12.011    2.731099   -0.043308   -0.486407
   1 C     6.0000    0    12.011   -0.074707    0.060145   -0.102058
   2 O     8.0000    0    15.999   -1.390793    1.868813   -0.592113
   3 H     1.0000    0     1.008    3.425981    1.723223   -1.267550
   4 H     1.0000    0     1.008    3.655411   -0.435867    1.314532
   5 H     1.0000    0     1.008    3.192734   -1.608954   -1.746280
   6 H     1.0000    0     1.008   -0.924660   -1.680498    0.689156

--------------------------------
INTERNAL COORDINATES (ANGSTROEM)
--------------------------------
 C      0   0   0     0.000000000000     0.00000000     0.00000000
 C      1   0   0     1.499633917448     0.00000000     0.00000000
 O      2   1   0     1.211748363970   124.67031846     0.00000000
 H      1   2   3     1.086254621363   110.81531195   359.90525414
 H      1   2   3     1.091162585766   109.40917547   121.55037566
 H      1   2   3     1.091136448458   109.40544618   238.21022096
 H      2   1   3     1.107267890438   115.03001942   179.99833058

---------------------------
INTERNAL COORDINATES (A.U.)
---------------------------
 C      0   0   0     0.000000000000     0.00000000     0.00000000
 C      1   0   0     2.833897405116     0.00000000     0.00000000
 O      2   1   0     2.289872551130   124.67031846     0.00000000
 H      1   2   3     2.052723746083   110.81531195   359.90525414
 H      1   2   3     2.061998454680   109.40917547   121.55037566
 H      1   2   3     2.061949062326   109.40544618   238.21022096
 H      2   1   3     2.092433069812   115.03001942   179.99833058



           ************************************************************
           *        Program running with 16 parallel MPI-processes    *
           *              working on a common directory               *
           ************************************************************


           ************************************************************
           *        Program running with 16 parallel MPI-processes    *
           *              working on a common directory               *
           ************************************************************

Diagonalization of the overlap matrix:
Smallest eigenvalue                        ... 3.026e-05
Time for diagonalization                   ...    0.012 sec
Threshold for overlap eigenvalues          ... 1.000e-08
Number of eigenvalues below threshold      ... 0
Time for construction of square roots      ...    0.011 sec
Total time needed                          ...    0.023 sec

--------------
SCF ITERATIONS
--------------
ITER       Energy         Delta-E        Max-DP      RMS-DP      [F,P]     Damp
               ***  Starting incremental Fock matrix formation  ***
                      *** Initiating the SOSCF procedure ***
                      *** Re-Reading the Fockian *** 
                      *** Removing any level shift *** 
ITER      Energy       Delta-E        Grad      Rot      Max-DP    RMS-DP
  0   -152.97653906 -152.9765390640  0.001787  0.001787  0.003989  0.000076
               *** Restarting incremental Fock matrix formation ***
  1   -152.97659935  -0.0000602856  0.000636  0.000661  0.001090  0.000024
  2   -152.97660825  -0.0000089004  0.000218  0.000277  0.000572  0.000014
  3   -152.97660997  -0.0000017248  0.000084  0.000079  0.000290  0.000004
  4   -152.97661016  -0.0000001873  0.000016  0.000013  0.000023  0.000001
  5   -152.97661017  -0.0000000089  0.000004  0.000010  0.000009  0.000000
                  ***Gradient check signals convergence***
              ***Rediagonalizing the Fockian in SOSCF/NRSCF***

               *****************************************************
               *                     SUCCESS                       *
               *           SCF CONVERGED AFTER   6 CYCLES          *
               *****************************************************

Total Energy       :         -152.97661017 Eh           -4162.70519 eV
  Last Energy change         ...   -1.1303e-09  Tolerance :   1.0000e-08
  Last MAX-Density change    ...    4.7399e-06  Tolerance :   1.0000e-07
             **** THE GBW FILE WAS UPDATED (acetaldehyde_MP2_aug-cc-pVTZ_OPT.gbw) ****
             **** DENSITY FILE WAS UPDATED (acetaldehyde_MP2_aug-cc-pVTZ_OPT.scfp) ****
             **** ENERGY FILE WAS UPDATED (acetaldehyde_MP2_aug-cc-pVTZ_OPT.en.tmp) ****
             **** THE GBW FILE WAS UPDATED (acetaldehyde_MP2_aug-cc-pVTZ_OPT.gbw) ****
             **** DENSITY FILE WAS UPDATED (acetaldehyde_MP2_aug-cc-pVTZ_OPT.scfp) ****
Total SCF time: 0 days 0 hours 0 min 5 sec 


           ************************************************************
           *        Program running with 16 parallel MPI-processes    *
           *              working on a common directory               *
           ************************************************************

------------------------------------------------------------------------------
                                ORCA  MP2 
------------------------------------------------------------------------------

Freezing NCore=6 chemical core electrons
MP2 will be done in the AO integral direct mode
The Q1-step will be done using symmetric double matrices
Dimension of the basis                    ...  230
Memory devoted for MP2                    ... 1000 MB   
Memory needed for all in one shot         ...   48 MB
Number of MOs that can be treated together...   20      
MP2 density construction                  ... relaxed
The MP2 gradient is requested => amplitudes will be stored on disk
Total number of MOs              ...    9
Number of MOs treated per batch  ...    1 
Number of batches necessary      ...    1 
OPERATORS   0/  0 PASS   0
-----------------------------------------------
 MP2 CORRELATION ENERGY   :     -0.577692864 Eh
-----------------------------------------------


---------------------
MP2 DENSITY FORMATION
---------------------

Completing the external part of the density      ... done
Storing the unrelaxed density                    ... done

Calculating G(D)                                 ... done
Completing the Lagrangian                        ... done
Solving the Z-vector equations                   ... 

------------------------------------------------------------------------------
                           ORCA CP-SCF CALCULATION
------------------------------------------------------------------------------

Input orbitals are from        ... acetaldehyde_MP2_aug-cc-pVTZ_OPT.gbw
Input Perturbation             ... acetaldehyde_MP2_aug-cc-pVTZ_OPT.pin.tmp
Wavefunction output            ... acetaldehyde_MP2_aug-cc-pVTZ_OPT.pout.tmp
Perturbation mode              ... Real perturbation (singlet)
Solver                         ... POPLE
Max. number of iterations      ... 128
Convergence tolerance          ... 1.000e-08
Integral handling              ... Direct
Number of perturbations        ... 1
Number of operators            ... 1
Orbital ranges used for CP-SCF:
 Operator 0:  Orbitals   0... 11  to  12...229
Variables per vector in CP-SCF ... 2616
Number of vectors sought       ... 1
     CP-SCF ITERATION   0: 
     CP-SCF ITERATION   1:      0.000631679010
     CP-SCF ITERATION   2:      0.000106911156
     CP-SCF ITERATION   3:      0.000005226214
     CP-SCF ITERATION   4:      0.000000548622
     CP-SCF ITERATION   5:      0.000000070730
     CP-SCF ITERATION   6:      0.000000004902
                                                 ... done
Finalizing the relaxed density                   ... done
Transforming P to the AO basis                   ... done
Storing the relaxed density                      ... done

------------------------------------
ENERGY WEIGHTED DENSITY FINALIZATION
------------------------------------

Gathering the parts of the W-matrix              ...                                                      done
Forming the Z-density                            ... done
Transforming Z to the AO basis                   ... done
Calculating G(Z)                                 ... done
[...]
                     * LOEWDIN POPULATION ANALYSIS *
                     *******************************

----------------------
LOEWDIN ATOMIC CHARGES
----------------------
   0 C :    0.554575
   1 C :   -0.234400
   2 O :    0.423245
   3 H :   -0.185911
   4 H :   -0.183132
   5 H :   -0.183130
   6 H :   -0.191247

-------------------------------
LOEWDIN REDUCED ORBITAL CHARGES
-------------------------------
  0 C s       :     2.473334  s :     2.473334
      pz      :     0.764097  p :     2.285242
      px      :     0.746659
      py      :     0.774486
      dz2     :     0.074981  d :     0.504398
      dxz     :     0.105479
      dyz     :     0.083529
      dx2y2   :     0.132762
      dxy     :     0.107647
      f0      :     0.020294  f :     0.182452
      f+1     :     0.027355
      f-1     :     0.007792
      f+2     :     0.029311
      f-2     :     0.014909
      f+3     :     0.030298
      f-3     :     0.052492
  1 C s       :     2.538014  s :     2.538014
      pz      :     0.525478  p :     2.169815
      px      :     0.830029
      py      :     0.814309
      dz2     :     0.079728  d :     1.043265
      dxz     :     0.169060
      dyz     :     0.138328
      dx2y2   :     0.347831
      dxy     :     0.308318
      f0      :     0.041378  f :     0.483306
      f+1     :     0.032675
      f-1     :     0.031170
      f+2     :     0.058007
      f-2     :     0.061084
      f+3     :     0.093873
      f-3     :     0.165117
  2 O s       :     3.224731  s :     3.224731
      pz      :     1.167989  p :     4.031176
      px      :     1.463088
      py      :     1.400099
      dz2     :     0.028387  d :     0.243174
      dxz     :     0.019862
      dyz     :     0.040194
      dx2y2   :     0.088820
      dxy     :     0.065912
      f0      :     0.005975  f :     0.077674
      f+1     :     0.005746
      f-1     :     0.006775
      f+2     :     0.006339
      f-2     :     0.010157
      f+3     :     0.015330
      f-3     :     0.027353
  3 H s       :     0.641709  s :     0.641709
      pz      :     0.093607  p :     0.314583
      px      :     0.084649
      py      :     0.136328
      dz2     :     0.036644  d :     0.229619
      dxz     :     0.017051
      dyz     :     0.060507
      dx2y2   :     0.066250
      dxy     :     0.049167
  4 H s       :     0.637554  s :     0.637554
      pz      :     0.138083  p :     0.317844
      px      :     0.090655
      py      :     0.089106
      dz2     :     0.066058  d :     0.227735
      dxz     :     0.045759
      dyz     :     0.072754
      dx2y2   :     0.030811
      dxy     :     0.012353
  5 H s       :     0.637571  s :     0.637571
      pz      :     0.112378  p :     0.317835
      px      :     0.081941
      py      :     0.123516
      dz2     :     0.064852  d :     0.227724
      dxz     :     0.030141
      dyz     :     0.041241
      dx2y2   :     0.052410
      dxy     :     0.039079
  6 H s       :     0.708269  s :     0.708269
      pz      :     0.066830  p :     0.280149
      px      :     0.084137
      py      :     0.129182
      dz2     :     0.029100  d :     0.202828
      dxz     :     0.017748
      dyz     :     0.049381
      dx2y2   :     0.057529
      dxy     :     0.049071


                      *****************************
                      * MAYER POPULATION ANALYSIS *
                      *****************************

  NA   - Mulliken gross atomic population
  ZA   - Total nuclear charge
  QA   - Mulliken gross atomic charge
  VA   - Mayer's total valence
  BVA  - Mayer's bonded valence
  FA   - Mayer's free valence

  ATOM       NA         ZA         QA         VA         BVA        FA
  0 C      6.6950     6.0000    -0.6950     3.7667     3.4508     0.3159
  1 C      6.0919     6.0000    -0.0919     3.3677     3.0470     0.3207
  2 O      8.6041     8.0000    -0.6041     1.9882     1.5110     0.4773
  3 H      0.6832     1.0000     0.3168     1.0001     0.9519     0.0482
  4 H      0.7069     1.0000     0.2931     1.0121     0.9637     0.0484
  5 H      0.7069     1.0000     0.2931     1.0120     0.9636     0.0484
  6 H      0.5120     1.0000     0.4880     0.6904     0.6398     0.0505

  Mayer bond orders larger than 0.100000
B(  0-C ,  1-C ) :   0.8319 B(  0-C ,  3-H ) :   0.8619 B(  0-C ,  4-H ) :   0.8731 
B(  0-C ,  5-H ) :   0.8731 B(  1-C ,  2-O ) :   1.5280 B(  1-C ,  6-H ) :   0.6445 



                *******************************************
                * RELAXED MP2 DENSITY POPULATION ANALYSIS *
                *******************************************

------------------------------------------------------------------------------
                           ORCA POPULATION ANALYSIS
------------------------------------------------------------------------------
Input electron density              ... acetaldehyde_MP2_aug-cc-pVTZ_OPT.pmp2re
BaseName (.gbw .S,...)              ... acetaldehyde_MP2_aug-cc-pVTZ_OPT

                    ********************************
                    * MULLIKEN POPULATION ANALYSIS *
                    ********************************

-----------------------
MULLIKEN ATOMIC CHARGES
-----------------------
   0 C :   -0.751028
   1 C :   -0.151657
   2 O :   -0.526767
   3 H :    0.331204
   4 H :    0.309344
   5 H :    0.309385
   6 H :    0.479519
Sum of atomic charges:    0.0000000

--------------------------------
MULLIKEN REDUCED ORBITAL CHARGES
--------------------------------
  0 C s       :     3.158957  s :     3.158957
      pz      :     1.223223  p :     3.441682
      px      :     0.948199
      py      :     1.270260
      dz2     :     0.026030  d :     0.142238
      dxz     :     0.033939
      dyz     :     0.042301
      dx2y2   :     0.026063
      dxy     :     0.013905
      f0      :     0.000813  f :     0.008152
      f+1     :    -0.000696
      f-1     :     0.000570
      f+2     :     0.002892
      f-2     :     0.001536
      f+3     :     0.002933
      f-3     :     0.000104
  1 C s       :     3.472391  s :     3.472391
      pz      :     0.723046  p :     2.460917
      px      :     0.875003
      py      :     0.862868
      dz2     :     0.007073  d :     0.192105
      dxz     :     0.026913
      dyz     :     0.034764
      dx2y2   :     0.108665
      dxy     :     0.014690
      f0      :     0.001684  f :     0.026245
      f+1     :     0.001976
      f-1     :     0.001569
      f+2     :     0.004467
      f-2     :     0.002562
      f+3     :     0.003069
      f-3     :     0.010918
  2 O s       :     3.981480  s :     3.981480
      pz      :     1.350356  p :     4.460999
      px      :     1.665682
      py      :     1.444962
      dz2     :     0.009108  d :     0.075826
      dxz     :     0.012966
      dyz     :     0.017238
      dx2y2   :     0.021868
      dxy     :     0.014646
      f0      :     0.000808  f :     0.008460
      f+1     :     0.000848
      f-1     :     0.000819
      f+2     :     0.000872
      f-2     :     0.001597
      f+3     :     0.001449
      f-3     :     0.002068
  3 H s       :     0.616779  s :     0.616779
      pz      :     0.017292  p :     0.047066
      px      :     0.017448
      py      :     0.012326
      dz2     :     0.001031  d :     0.004951
      dxz     :     0.000301
      dyz     :     0.001010
      dx2y2   :     0.001088
      dxy     :     0.001521
  4 H s       :     0.633773  s :     0.633773
      pz      :     0.016502  p :     0.051103
      px      :     0.014356
      py      :     0.020245
      dz2     :     0.001326  d :     0.005780
      dxz     :    -0.000329
      dyz     :     0.002698
      dx2y2   :     0.001630
      dxy     :     0.000456
  5 H s       :     0.633744  s :     0.633744
      pz      :     0.018952  p :     0.051091
      px      :     0.012625
      py      :     0.019514
      dz2     :     0.002626  d :     0.005780
      dxz     :     0.000556
      dyz     :    -0.001007
      dx2y2   :     0.002128
      dxy     :     0.001478
  6 H s       :     0.531054  s :     0.531054
      pz      :    -0.003953  p :    -0.009392
      px      :     0.013873
      py      :    -0.019312
      dz2     :    -0.000837  d :    -0.001181
      dxz     :     0.000449
      dyz     :    -0.001689
      dx2y2   :    -0.001453
      dxy     :     0.002348


                     *******************************
                     * LOEWDIN POPULATION ANALYSIS *
                     *******************************

----------------------
LOEWDIN ATOMIC CHARGES
----------------------
   0 C :    0.541313
   1 C :   -0.245307
   2 O :    0.457776
   3 H :   -0.188048
   4 H :   -0.182914
   5 H :   -0.182912
   6 H :   -0.199908

-------------------------------
LOEWDIN REDUCED ORBITAL CHARGES
-------------------------------
  0 C s       :     2.479074  s :     2.479074
      pz      :     0.770556  p :     2.306391
      px      :     0.754737
      py      :     0.781097
      dz2     :     0.071857  d :     0.490672
      dxz     :     0.105866
      dyz     :     0.078490
      dx2y2   :     0.126588
      dxy     :     0.107870
      f0      :     0.020493  f :     0.182551
      f+1     :     0.027362
      f-1     :     0.007684
      f+2     :     0.030277
      f-2     :     0.014260
      f+3     :     0.029996
      f-3     :     0.052478
  1 C s       :     2.542766  s :     2.542766
      pz      :     0.558400  p :     2.201105
      px      :     0.826660
      py      :     0.816045
      dz2     :     0.077773  d :     1.036876
      dxz     :     0.164679
      dyz     :     0.130901
      dx2y2   :     0.352117
      dxy     :     0.311406
      f0      :     0.039191  f :     0.464560
      f+1     :     0.031653
      f-1     :     0.029974
      f+2     :     0.056523
      f-2     :     0.057444
      f+3     :     0.091447
      f-3     :     0.158327
  2 O s       :     3.230282  s :     3.230282
      pz      :     1.145288  p :     3.985638
      px      :     1.448570
      py      :     1.391780
      dz2     :     0.028648  d :     0.246705
      dxz     :     0.020765
      dyz     :     0.041460
      dx2y2   :     0.090424
      dxy     :     0.065408
      f0      :     0.006365  f :     0.079598
      f+1     :     0.005852
      f-1     :     0.007179
      f+2     :     0.006306
      f-2     :     0.011100
      f+3     :     0.015573
      f-3     :     0.027223
  3 H s       :     0.636632  s :     0.636632
      pz      :     0.095687  p :     0.321140
      px      :     0.088482
      py      :     0.136971
      dz2     :     0.036540  d :     0.230277
      dxz     :     0.017261
      dyz     :     0.060096
      dx2y2   :     0.066201
      dxy     :     0.050179
  4 H s       :     0.630500  s :     0.630500
      pz      :     0.138685  p :     0.324903
      px      :     0.094436
      py      :     0.091782
      dz2     :     0.066207  d :     0.227511
      dxz     :     0.046362
      dyz     :     0.071924
      dx2y2   :     0.030199
      dxy     :     0.012819
  5 H s       :     0.630518  s :     0.630518
      pz      :     0.113964  p :     0.324892
      px      :     0.086044
      py      :     0.124884
      dz2     :     0.064363  d :     0.227501
      dxz     :     0.030175
      dyz     :     0.041363
      dx2y2   :     0.051987
      dxy     :     0.039614
  6 H s       :     0.705052  s :     0.705052
      pz      :     0.070586  p :     0.290278
      px      :     0.086143
      py      :     0.133549
      dz2     :     0.030052  d :     0.204578
      dxz     :     0.017930
      dyz     :     0.049869
      dx2y2   :     0.057327
      dxy     :     0.049400


                      *****************************
                      * MAYER POPULATION ANALYSIS *
                      *****************************

  NA   - Mulliken gross atomic population
  ZA   - Total nuclear charge
  QA   - Mulliken gross atomic charge
  VA   - Mayer's total valence
  BVA  - Mayer's bonded valence
  FA   - Mayer's free valence

  ATOM       NA         ZA         QA         VA         BVA        FA
  0 C      6.7510     6.0000    -0.7510     3.7621     3.4500     0.3121
  1 C      6.1517     6.0000    -0.1517     3.4804     3.1708     0.3096
  2 O      8.5268     8.0000    -0.5268     2.0848     1.6232     0.4616
  3 H      0.6688     1.0000     0.3312     0.9857     0.9379     0.0479
  4 H      0.6907     1.0000     0.3093     1.0018     0.9543     0.0475
  5 H      0.6906     1.0000     0.3094     1.0018     0.9543     0.0475
  6 H      0.5205     1.0000     0.4795     0.7010     0.6512     0.0498

  Mayer bond orders larger than 0.100000
B(  0-C ,  1-C ) :   0.8658 B(  0-C ,  3-H ) :   0.8492 B(  0-C ,  4-H ) :   0.8541 
B(  0-C ,  5-H ) :   0.8542 B(  1-C ,  2-O ) :   1.6125 B(  1-C ,  6-H ) :   0.6419 



----------------------------------
MP2 DERIVATIVE INTEGRAL GENERATION
----------------------------------


Input Wavefunction Amplitudes       ... acetaldehyde_MP2_aug-cc-pVTZ_OPT.mp2tsaa.tmp
Input Correlated Electron Density   ... acetaldehyde_MP2_aug-cc-pVTZ_OPT.pmp2re
Input Energy Weighted Density       ... acetaldehyde_MP2_aug-cc-pVTZ_OPT.wmp2.tmp
Input SCF Electron Density          ... acetaldehyde_MP2_aug-cc-pVTZ_OPT.scfp

One-Electron Terms    ...
                        ... One-Electron Terms done
Prescreening matrices              ... done

Batch handling in the gradient evaluation:
Memory available                      ... 1000.0 MB
Memory per occupied orbital in Q2     ...    3.6 MB
Memory per occupied orbital in Q3     ...    0.1 MB
Total memory requirement per |i>      ...    3.7 MB
Max. Number of orbitals possible      ...    268
Number of orbitals treated per batch  ...      9
Number of batches to be done          ...      1
Batch   0: i=    3 ...    11

---------------------------------------
MP2 TOTAL ENERGY:     -153.554330952 Eh
---------------------------------------

-----------------------------------
NORM OF THE MP2 GRADIENT:  0.000234
-----------------------------------

-------------------------   --------------------
FINAL SINGLE POINT ENERGY      -153.554330951694
-------------------------   --------------------

                                *** OPTIMIZATION RUN DONE ***

                            ***************************************
                            *     ORCA property calculations      *
                            ***************************************

                                    ---------------------
                                    Active property flags
                                    ---------------------
   (+) Dipole Moment


------------------------------------------------------------------------------
                       ORCA ELECTRIC PROPERTIES CALCULATION
------------------------------------------------------------------------------

Dipole Moment Calculation                       ... on
Quadrupole Moment Calculation                   ... off
Polarizability Calculation                      ... off
GBWName                                         ... acetaldehyde_MP2_aug-cc-pVTZ_OPT.gbw
Electron density file                           ... acetaldehyde_MP2_aug-cc-pVTZ_OPT.scfp
The origin for moment calculation is the CENTER OF MASS  = ( 0.437015,  0.635640 -0.398755)

-------------
DIPOLE MOMENT
-------------
                                X             Y             Z
Electronic contribution:     -2.86375       1.31789      -0.06996
Nuclear contribution   :      3.75271      -2.24291       0.28877
                        -----------------------------------------
Total Dipole Moment    :      0.88895      -0.92502       0.21881
                        -----------------------------------------
Magnitude (a.u.)       :      1.30145
Magnitude (Debye)      :      3.30804



--------------------
Rotational spectrum 
--------------------
 
Rotational constants in cm-1:     1.901356     0.338825     0.303642 
Rotational constants in MHz : 57001.220388 10157.716774  9102.948745 

 Dipole components along the rotational axes: 
x,y,z [a.u.] :     1.186968    -0.533751     0.000022 
x,y,z [Debye]:     3.017034    -1.356688     0.000056 

 

                         *** MP2 UNRELAXED DENSITY ***

------------------------------------------------------------------------------
                       ORCA ELECTRIC PROPERTIES CALCULATION
------------------------------------------------------------------------------

Dipole Moment Calculation                       ... on
Quadrupole Moment Calculation                   ... off
Polarizability Calculation                      ... off
GBWName                                         ... acetaldehyde_MP2_aug-cc-pVTZ_OPT.gbw
Electron density file                           ... acetaldehyde_MP2_aug-cc-pVTZ_OPT.pmp2ur
The origin for moment calculation is the CENTER OF MASS  = ( 0.437015,  0.635640 -0.398755)

-------------
DIPOLE MOMENT
-------------
                                X             Y             Z
Electronic contribution:     -2.89184       1.35837      -0.08118
Nuclear contribution   :      3.75271      -2.24291       0.28877
                        -----------------------------------------
Total Dipole Moment    :      0.86086      -0.88454       0.20759
                        -----------------------------------------
Magnitude (a.u.)       :      1.25164
Magnitude (Debye)      :      3.18141



--------------------
Rotational spectrum 
--------------------
 
Rotational constants in cm-1:     1.901356     0.338825     0.303642 
Rotational constants in MHz : 57001.220388 10157.716774  9102.948745 

 Dipole components along the rotational axes: 
x,y,z [a.u.] :     1.144915    -0.505728     0.000011 
x,y,z [Debye]:     2.910144    -1.285458     0.000028 

 

                           *** MP2 RELAXED DENSITY ***

------------------------------------------------------------------------------
                       ORCA ELECTRIC PROPERTIES CALCULATION
------------------------------------------------------------------------------

Dipole Moment Calculation                       ... on
Quadrupole Moment Calculation                   ... off
Polarizability Calculation                      ... off
GBWName                                         ... acetaldehyde_MP2_aug-cc-pVTZ_OPT.gbw
Electron density file                           ... acetaldehyde_MP2_aug-cc-pVTZ_OPT.pmp2re
The origin for moment calculation is the CENTER OF MASS  = ( 0.437015,  0.635640 -0.398755)

-------------
DIPOLE MOMENT
-------------
                                X             Y             Z
Electronic contribution:     -2.98271       1.47347      -0.11140
Nuclear contribution   :      3.75271      -2.24291       0.28877
                        -----------------------------------------
Total Dipole Moment    :      0.77000      -0.76944       0.17738
                        -----------------------------------------
Magnitude (a.u.)       :      1.10290
Magnitude (Debye)      :      2.80336



--------------------
Rotational spectrum 
--------------------
 
Rotational constants in cm-1:     1.901356     0.338825     0.303642 
Rotational constants in MHz : 57001.220388 10157.716774  9102.948745 

 Dipole components along the rotational axes: 
x,y,z [a.u.] :     1.015289    -0.430795     0.000008 
x,y,z [Debye]:     2.580661    -1.094994     0.000021 

 

Timings for individual modules:

Sum of individual times         ...      224.095 sec (=   3.735 min)
GTO integral calculation        ...        3.819 sec (=   0.064 min)   1.7 %
SCF iterations                  ...       39.613 sec (=   0.660 min)  17.7 %
MP2 module                      ...      180.555 sec (=   3.009 min)  80.6 %
Geometry relaxation             ...        0.109 sec (=   0.002 min)   0.0 %
                             ****ORCA TERMINATED NORMALLY****
TOTAL RUN TIME: 0 days 0 hours 3 minutes 44 seconds 608 msec
