
                                 *****************
                                 * O   R   C   A *
                                 *****************

           --- An Ab Initio, DFT and Semiempirical electronic structure package ---

                  #######################################################
                  #                        -***-                        #
                  #          Department of theory and spectroscopy      #
                  #               Directorship: Frank Neese             #
                  #        Max Planck Institute fuer Kohlenforschung    #
                  #                Kaiser Wilhelm Platz 1               #
                  #                 D-45470 Muelheim/Ruhr               #
                  #                      Germany                        #
                  #                                                     #
                  #                  All rights reserved                #
                  #                        -***-                        #
                  #######################################################


                         Program Version 4.2.1 -  RELEASE  -


 With contributions from (in alphabetic order):
   Daniel Aravena         : Magnetic Suceptibility
   Michael Atanasov       : Ab Initio Ligand Field Theory (pilot matlab implementation)
   Alexander A. Auer      : GIAO ZORA, VPT2
   Ute Becker             : Parallelization
   Giovanni Bistoni       : ED, misc. LED, open-shell LED, HFLD
   Martin Brehm           : Molecular dynamics
   Dmytro Bykov           : SCF Hessian
   Vijay G. Chilkuri      : MRCI spin determinant printing, contributions to CSF-ICE
   Dipayan Datta          : RHF DLPNO-CCSD density
   Achintya Kumar Dutta   : EOM-CC, STEOM-CC
   Dmitry Ganyushin       : Spin-Orbit,Spin-Spin,Magnetic field MRCI
   Miquel Garcia          : C-PCM Hessian, Gaussian charge scheme
   Yang Guo               : DLPNO-NEVPT2, CIM, IAO-localization
   Andreas Hansen         : Spin unrestricted coupled pair/coupled cluster methods
   Benjamin Helmich-Paris : CASSCF linear response (MC-RPA)
   Lee Huntington         : MR-EOM, pCC
   Robert Izsak           : Overlap fitted RIJCOSX, COSX-SCS-MP3, EOM
   Christian Kollmar      : KDIIS, OOCD, Brueckner-CCSD(T), CCSD density
   Simone Kossmann        : Meta GGA functionals, TD-DFT gradient, OOMP2, MP2 Hessian
   Martin Krupicka        : AUTO-CI
   Lucas Lang             : DCDCAS
   Dagmar Lenk            : GEPOL surface, SMD
   Dimitrios Liakos       : Extrapolation schemes; Compound Job, initial MDCI parallelization
   Dimitrios Manganas     : Further ROCIS development; embedding schemes
   Dimitrios Pantazis     : SARC Basis sets
   Taras Petrenko         : DFT Hessian,TD-DFT gradient, ASA, ECA, R-Raman, ABS, FL, XAS/XES, NRVS
   Peter Pinski           : DLPNO-MP2, DLPNO-MP2 Gradient
   Christoph Reimann      : Effective Core Potentials
   Marius Retegan         : Local ZFS, SOC
   Christoph Riplinger    : Optimizer, TS searches, QM/MM, DLPNO-CCSD(T), (RO)-DLPNO pert. Triples
   Tobias Risthaus        : Range-separated hybrids, TD-DFT gradient, RPA, STAB
   Michael Roemelt        : Original ROCIS implementation
   Masaaki Saitow         : Open-shell DLPNO-CCSD energy and density
   Barbara Sandhoefer     : DKH picture change effects
   Avijit Sen             : IP-ROCIS
   Kantharuban Sivalingam : CASSCF convergence, NEVPT2, FIC-MRCI
   Bernardo de Souza      : ESD, SOC TD-DFT
   Georgi Stoychev        : AutoAux, RI-MP2 NMR
   Willem Van den Heuvel  : Paramagnetic NMR
   Boris Wezisla          : Elementary symmetry handling
   Frank Wennmohs         : Technical directorship


 We gratefully acknowledge several colleagues who have allowed us to
 interface, adapt or use parts of their codes:
   Stefan Grimme, W. Hujo, H. Kruse,             : VdW corrections, initial TS optimization,
                  C. Bannwarth                     DFT functionals, gCP, sTDA/sTD-DF
   Ed Valeev, F. Pavosevic, A. Kumar             : LibInt (2-el integral package), F12 methods
   Garnet Chan, S. Sharma, J. Yang, R. Olivares  : DMRG
   Ulf Ekstrom                                   : XCFun DFT Library
   Mihaly Kallay                                 : mrcc  (arbitrary order and MRCC methods)
   Andreas Klamt, Michael Diedenhofen            : otool_cosmo (COSMO solvation model)
   Jiri Pittner, Ondrej Demel                    : Mk-CCSD
   Frank Weinhold                                : gennbo (NPA and NBO analysis)
   Christopher J. Cramer and Donald G. Truhlar   : smd solvation model
   Lars Goerigk                                  : TD-DFT with DH, B97 family of functionals
   V. Asgeirsson, H. Jonsson                     : NEB implementation
   FAccTs GmbH                                   : IRC, NEB, NEB-TS, Multilevel, MM, QM/MM, CI optimization
   S Lehtola, MJT Oliveira, MAL Marques          : LibXC Library


 Your calculation uses the libint2 library for the computation of 2-el integrals
 For citations please refer to: http://libint.valeyev.net

 Your ORCA version has been built with support for libXC version: 4.2.3
 For citations please refer to: https://tddft.org/programs/libxc/

 This ORCA versions uses:
   CBLAS   interface :  Fast vector & matrix operations
   LAPACKE interface :  Fast linear algebra routines
   SCALAPACK package :  Parallel linear algebra routines




***************************************
The coordinates will be read from file: acetaldehyde_MP2_aug-cc-pVTZ_OPT.xyz
***************************************


----- Orbital basis set information -----
Your calculation utilizes the basis: aug-cc-pVTZ 
    H, B-Ne : Obtained from the ccRepo (grant-hill.group.shef.ac.uk/ccrepo) Feb. 2017
              R. A. Kendall, T. H. Dunning, Jr., R. J. Harrison, J. Chem. Phys. 96, 6796 (1992)
         He : Obtained from the ccRepo (grant-hill.group.shef.ac.uk/ccrepo) Feb. 2017
              D. E. Woon, T. H. Dunning, Jr., J. Chem. Phys. 100, 2975 (1994)
  Li-Be, Na : Obtained from the ccRepo (grant-hill.group.shef.ac.uk/ccrepo) Feb. 2017
              B. P. Prascher, D. E. Woon, K. A. Peterson, T. H. Dunning, Jr., A. K. Wilson, Theor. Chem. Acc. 128, 69 (2011)
         Mg : Obtained from the Peterson Research Group Website (tyr0.chem.wsu.edu/~kipeters) Feb. 2017
              B. P. Prascher, D. E. Woon, K. A. Peterson, T. H. Dunning, Jr., A. K. Wilson, Theor. Chem. Acc. 128, 69 (2011)
      Al-Ar : Obtained from the ccRepo (grant-hill.group.shef.ac.uk/ccrepo) Feb. 2017
              D. E. Woon, T. H. Dunning, Jr., J. Chem. Phys. 98, 1358 (1993)
      Sc-Zn : Obtained from the ccRepo (grant-hill.group.shef.ac.uk/ccrepo) Feb. 2017
              N. B. Balabanov, K. A. Peterson, J. Chem. Phys. 123, 064107 (2005)
              N. B. Balabanov, K. A. Peterson, J. Chem. Phys. 125, 074110 (2006)
      Ga-Kr : Obtained from the ccRepo (grant-hill.group.shef.ac.uk/ccrepo) Feb. 2017
              A. K. Wilson, D. E. Woon, K. A. Peterson, T. H. Dunning, Jr., J. Chem. Phys. 110, 7667 (1999)
     Ag, Au : Obtained from the Peterson Research Group Website (tyr0.chem.wsu.edu/~kipeters) Feb. 2017
              K. A. Peterson, C. Puzzarini, Theor. Chem. Acc. 114, 283 (2005)

----- AuxC basis set information -----
Your calculation utilizes the auxiliary basis: aug-cc-pVTZ/C 
  H-He, B-F, Al-Ar, Ga-Kr : Obtained from the EMSL Basis Set Exchange (bse.pnl.gov) Feb. 2017
                            F. Weigend, A. Kohn, C. Hattig, J. Chem. Phys. 116, 3175 (2002)
                   Be, Mg : Obtained from the TURBOMOLE 7.0 basis set library
                            C. Haettig, Phys. Chem. Chem. Phys. 7, 59 (2005)
                       Ne : Obtained from the EMSL Basis Set Exchange (bse.pnl.gov) Feb. 2017
                            C. Haettig, Phys. Chem. Chem. Phys. 7, 59 (2005)
                            F. Weigend, A. Kohn, C. Hattig, J. Chem. Phys. 116, 3175 (2002)
                    Sc-Zn : Obtained from the EMSL Basis Set Exchange (bse.pnl.gov) Feb. 2017
                            J. G. Hill, J. A. Platts, J. Chem. Phys. 128, 044104 (2008)

================================================================================
                                        WARNINGS
                       Please study these warnings very carefully!
================================================================================


WARNING: MDCI localization with Augmented Hessian Foster-Boys
  ===> : Switching off randomization!

WARNING: Post HF methods need fully converged wavefunctions
  ===> : Setting SCFConvForced true
         You can overwrite this default with %scf ConvForced false 


INFO   : the flag for use of LIBINT has been found!

================================================================================
                                       INPUT FILE
================================================================================
NAME = acetaldehyde_DLPNO-CCSDT_aug-cc-pVTZ_SPE.inp
|  1> # acetaldehyde DLPNO-CCSD(T)/aug-cc-pVTZ SPE
|  2> 
|  3> ! DLPNO-CCSD(T) aug-cc-pVTZ aug-cc-pVTZ/C TightSCF PAL16
|  4> %maxcore 1000
|  5> 
|  6> * xyzfile 0 1 acetaldehyde_MP2_aug-cc-pVTZ_OPT.xyz
|  7> 
|  8> 
|  9>                          ****END OF INPUT****
================================================================================

                       ****************************
                       * Single Point Calculation *
                       ****************************

---------------------------------
CARTESIAN COORDINATES (ANGSTROEM)
---------------------------------
  C      1.446461   -0.023258   -0.257387
  C     -0.036315    0.028216   -0.052843
  O     -0.733133    0.988959   -0.314435
  H      1.809508    0.913145   -0.670530
  H      1.934230   -0.230113    0.696431
  H      1.689184   -0.850886   -0.925647
  H     -0.492685   -0.887683    0.365130

----------------------------
CARTESIAN COORDINATES (A.U.)
----------------------------
  NO LB      ZA    FRAG     MASS         X           Y           Z
   0 C     6.0000    0    12.011    2.733416   -0.043952   -0.486391
   1 C     6.0000    0    12.011   -0.068626    0.053321   -0.099860
   2 O     8.0000    0    15.999   -1.385420    1.868863   -0.594195
   3 H     1.0000    0     1.008    3.419474    1.725594   -1.267117
   4 H     1.0000    0     1.008    3.655165   -0.434851    1.316064
   5 H     1.0000    0     1.008    3.192095   -1.607942   -1.749219
   6 H     1.0000    0     1.008   -0.931040   -1.677477    0.689996

--------------------------------
INTERNAL COORDINATES (ANGSTROEM)
--------------------------------
 C      0   0   0     0.000000000000     0.00000000     0.00000000
 C      1   0   0     1.497703125894     0.00000000     0.00000000
 O      2   1   0     1.215323963230   124.43135876     0.00000000
 H      1   2   3     1.085974380188   110.68894405   359.96919883
 H      1   2   3     1.091089744619   109.25169101   121.59208187
 H      1   2   3     1.091079005009   109.26640398   238.32941025
 H      2   1   3     1.105371533205   115.58913919   179.95440405

---------------------------
INTERNAL COORDINATES (A.U.)
---------------------------
 C      0   0   0     0.000000000000     0.00000000     0.00000000
 C      1   0   0     2.830248737858     0.00000000     0.00000000
 O      2   1   0     2.296629454497   124.43135876     0.00000000
 H      1   2   3     2.052194167011   110.68894405   359.96919883
 H      1   2   3     2.061860804860   109.25169101   121.59208187
 H      1   2   3     2.061840509939   109.26640398   238.32941025
 H      2   1   3     2.088849473989   115.58913919   179.95440405

---------------------
BASIS SET INFORMATION
---------------------
There are 3 groups of distinct atoms

 Group   1 Type C   : 19s6p3d2f contracted to 5s4p3d2f pattern {88111/3111/111/11}
 Group   2 Type O   : 19s6p3d2f contracted to 5s4p3d2f pattern {88111/3111/111/11}
 Group   3 Type H   : 6s3p2d contracted to 4s3p2d pattern {3111/111/11}

Atom   0C    basis set group =>   1
Atom   1C    basis set group =>   1
Atom   2O    basis set group =>   2
Atom   3H    basis set group =>   3
Atom   4H    basis set group =>   3
Atom   5H    basis set group =>   3
Atom   6H    basis set group =>   3
---------------------------------
AUXILIARY/C BASIS SET INFORMATION
---------------------------------
There are 3 groups of distinct atoms

 Group   1 Type C   : 9s7p6d4f2g contracted to 9s7p6d4f2g pattern {111111111/1111111/111111/1111/11}
 Group   2 Type O   : 9s7p6d4f2g contracted to 9s7p6d4f2g pattern {111111111/1111111/111111/1111/11}
 Group   3 Type H   : 5s4p3d2f contracted to 5s4p3d2f pattern {11111/1111/111/11}

Atom   0C    basis set group =>   1
Atom   1C    basis set group =>   1
Atom   2O    basis set group =>   2
Atom   3H    basis set group =>   3
Atom   4H    basis set group =>   3
Atom   5H    basis set group =>   3
Atom   6H    basis set group =>   3


           ************************************************************
           *        Program running with 16 parallel MPI-processes    *
           *              working on a common directory               *
           ************************************************************
------------------------------------------------------------------------------
                           ORCA GTO INTEGRAL CALCULATION
------------------------------------------------------------------------------

                         BASIS SET STATISTICS AND STARTUP INFO

 # of primitive gaussian shells          ...  134
 # of primitive gaussian functions       ...  298
 # of contracted shells                  ...   78
 # of contracted basis functions         ...  230
 Highest angular momentum                ...    3
 Maximum contraction depth               ...    8
 Integral package used                   ... LIBINT
 Integral threshhold            Thresh   ...  2.500e-11
 Primitive cut-off              TCut     ...  2.500e-12


------------------------------ INTEGRAL EVALUATION ----------------------------


 * One electron integrals 
 Pre-screening matrix                    ... done
 Shell pair data                         ... done (   0.001 sec)



           ************************************************************
           *        Program running with 16 parallel MPI-processes    *
           *              working on a common directory               *
           ************************************************************
-------------------------------------------------------------------------------
                                 ORCA SCF
-------------------------------------------------------------------------------

------------
SCF SETTINGS
------------
Hamiltonian:
 Ab initio Hamiltonian  Method          .... Hartree-Fock(GTOs)


General Settings:
 Integral files         IntName         .... acetaldehyde_DLPNO-CCSDT_aug-cc-pVTZ_SPE
 Hartree-Fock type      HFTyp           .... RHF
 Total Charge           Charge          ....    0
 Multiplicity           Mult            ....    1
 Number of Electrons    NEL             ....   24
 Basis Dimension        Dim             ....  230
 Nuclear Repulsion      ENuc            ....     69.6776513787 Eh

Convergence Acceleration:
 DIIS                   CNVDIIS         .... on
   Start iteration      DIISMaxIt       ....    12
   Startup error        DIISStart       ....  0.200000
   # of expansion vecs  DIISMaxEq       ....     5
   Bias factor          DIISBfac        ....   1.050
   Max. coefficient     DIISMaxC        ....  10.000
 Newton-Raphson         CNVNR           .... off
 SOSCF                  CNVSOSCF        .... on
   Start iteration      SOSCFMaxIt      ....   150
   Startup grad/error   SOSCFStart      ....  0.003300
 Level Shifting         CNVShift        .... on
   Level shift para.    LevelShift      ....    0.2500
   Turn off err/grad.   ShiftErr        ....    0.0010
 Zerner damping         CNVZerner       .... off
 Static damping         CNVDamp         .... on
   Fraction old density DampFac         ....    0.7000
   Max. Damping (<1)    DampMax         ....    0.9800
   Min. Damping (>=0)   DampMin         ....    0.0000
   Turn off err/grad.   DampErr         ....    0.1000
 Fernandez-Rico         CNVRico         .... off

SCF Procedure:
 Maximum # iterations   MaxIter         ....   125
 SCF integral mode      SCFMode         .... Direct
   Integral package                     .... LIBINT
 Reset frequency        DirectResetFreq ....    20
 Integral Threshold     Thresh          ....  2.500e-11 Eh
 Primitive CutOff       TCut            ....  2.500e-12 Eh

Convergence Tolerance:
 Convergence Check Mode ConvCheckMode   .... Total+1el-Energy
 Convergence forced     ConvForced      .... 1
 Energy Change          TolE            ....  1.000e-08 Eh
 1-El. energy change                    ....  1.000e-05 Eh
 Orbital Gradient       TolG            ....  1.000e-05
 Orbital Rotation angle TolX            ....  1.000e-05
 DIIS Error             TolErr          ....  5.000e-07


Diagonalization of the overlap matrix:
Smallest eigenvalue                        ... 2.989e-05
Time for diagonalization                   ...    0.013 sec
Threshold for overlap eigenvalues          ... 1.000e-08
Number of eigenvalues below threshold      ... 0
Time for construction of square roots      ...    0.014 sec
Total time needed                          ...    0.028 sec

-------------------
DFT GRID GENERATION
-------------------

General Integration Accuracy     IntAcc      ...  4.340
Radial Grid Type                 RadialGrid  ... Gauss-Chebyshev
Angular Grid (max. acc.)         AngularGrid ... Lebedev-110
Angular grid pruning method      GridPruning ... 3 (G Style)
Weight generation scheme         WeightScheme... Becke
Basis function cutoff            BFCut       ...    1.0000e-11
Integration weight cutoff        WCut        ...    1.0000e-14
Grids for H and He will be reduced by one unit

# of grid points (after initial pruning)     ...   8204 (   0.0 sec)
# of grid points (after weights+screening)   ...   7931 (   0.0 sec)
nearest neighbour list constructed           ...    0.0 sec
Grid point re-assignment to atoms done       ...    0.0 sec
Grid point division into batches done        ...    0.0 sec
Reduced shell lists constructed in    0.0 sec

Total number of grid points                  ...     7931
Total number of batches                      ...      126
Average number of points per batch           ...       62
Average number of grid points per atom       ...     1133
Average number of shells per batch           ...    68.44 (87.75%)
Average number of basis functions per batch  ...   200.89 (87.34%)
Average number of large shells per batch     ...    65.44 (95.62%)
Average number of large basis fcns per batch ...   192.56 (95.85%)
Maximum spatial batch extension              ...   1.90,  2.02,  2.14 au
Average spatial batch extension              ...   0.10,  0.10,  0.10 au

Time for grid setup =    0.015 sec

------------------------------
INITIAL GUESS: MODEL POTENTIAL
------------------------------
Loading Hartree-Fock densities                     ... done
Calculating cut-offs                               ... done
Setting up the integral package                    ... done
Initializing the effective Hamiltonian             ... done
Starting the Coulomb interaction                   ... done (   0.0 sec)
Reading the grid                                   ... done
Mapping shells                                     ... done
Starting the XC term evaluation                    ... done (   0.0 sec)
Transforming the Hamiltonian                       ... done (   0.0 sec)
Diagonalizing the Hamiltonian                      ... done (   0.0 sec)
Back transforming the eigenvectors                 ... done (   0.0 sec)
Now organizing SCF variables                       ... done
                      ------------------
                      INITIAL GUESS DONE (   0.1 sec)
                      ------------------
--------------
SCF ITERATIONS
--------------
ITER       Energy         Delta-E        Max-DP      RMS-DP      [F,P]     Damp
               ***  Starting incremental Fock matrix formation  ***
  0   -152.8110712364   0.000000000000 0.02757960  0.00068956  0.3130381 0.7000
  1   -152.8700358147  -0.058964578357 0.02011587  0.00052113  0.1896038 0.7000
                               ***Turning on DIIS***
  2   -152.9045818846  -0.034546069892 0.01483438  0.00035713  0.1097783 0.7000
  3   -153.2458776310  -0.341295746433 0.03797968  0.00087855  0.0826446 0.0000
  4   -152.9482819163   0.297595714762 0.01035343  0.00013791  0.0081879 0.0000
  5   -152.9776473920  -0.029365475766 0.00259555  0.00005407  0.0042242 0.0000
                      *** Initiating the SOSCF procedure ***
                           *** Shutting down DIIS ***
                      *** Re-Reading the Fockian *** 
                      *** Removing any level shift *** 
ITER      Energy       Delta-E        Grad      Rot      Max-DP    RMS-DP
  6   -152.97566264   0.0019847484  0.001714  0.001714  0.001281  0.000026
               *** Restarting incremental Fock matrix formation ***
  7   -152.97629993  -0.0006372851  0.000517  0.000805  0.000730  0.000015
  8   -152.97630597  -0.0000060456  0.000433  0.001414  0.000698  0.000016
  9   -152.97630820  -0.0000022251  0.000140  0.000181  0.000192  0.000004
 10   -152.97630850  -0.0000003019  0.000044  0.000059  0.000066  0.000001
 11   -152.97630852  -0.0000000233  0.000013  0.000030  0.000024  0.000000
                  ***Gradient check signals convergence***
              ***Rediagonalizing the Fockian in SOSCF/NRSCF***

               *****************************************************
               *                     SUCCESS                       *
               *           SCF CONVERGED AFTER  12 CYCLES          *
               *****************************************************


----------------
TOTAL SCF ENERGY
----------------

Total Energy       :         -152.97630853 Eh           -4162.69698 eV

Components:
Nuclear Repulsion  :           69.67765138 Eh            1896.02529 eV
Electronic Energy  :         -222.65395991 Eh           -6058.72227 eV
One Electron Energy:         -345.78716404 Eh           -9409.34710 eV
Two Electron Energy:          123.13320413 Eh            3350.62483 eV

Virial components:
Potential Energy   :         -305.69661045 Eh           -8318.42767 eV
Kinetic Energy     :          152.72030192 Eh            4155.73069 eV
Virial Ratio       :            2.00167631


---------------
SCF CONVERGENCE
---------------

  Last Energy change         ...   -3.6537e-09  Tolerance :   1.0000e-08
  Last MAX-Density change    ...    6.9981e-06  Tolerance :   1.0000e-07
  Last RMS-Density change    ...    1.2660e-07  Tolerance :   5.0000e-09
  Last Orbital Gradient      ...    1.3539e-06  Tolerance :   1.0000e-05
  Last Orbital Rotation      ...    3.6330e-06  Tolerance :   1.0000e-05

             **** THE GBW FILE WAS UPDATED (acetaldehyde_DLPNO-CCSDT_aug-cc-pVTZ_SPE.gbw) ****
             **** DENSITY FILE WAS UPDATED (acetaldehyde_DLPNO-CCSDT_aug-cc-pVTZ_SPE.scfp) ****
             **** ENERGY FILE WAS UPDATED (acetaldehyde_DLPNO-CCSDT_aug-cc-pVTZ_SPE.en.tmp) ****
             **** THE GBW FILE WAS UPDATED (acetaldehyde_DLPNO-CCSDT_aug-cc-pVTZ_SPE.gbw) ****
             **** DENSITY FILE WAS UPDATED (acetaldehyde_DLPNO-CCSDT_aug-cc-pVTZ_SPE.scfp) ****
----------------
ORBITAL ENERGIES
----------------

  NO   OCC          E(Eh)            E(eV) 
   0   2.0000     -20.560290      -559.4739 
   1   2.0000     -11.337474      -308.5083 
   2   2.0000     -11.242708      -305.9296 
   3   2.0000      -1.390457       -37.8363 
   4   2.0000      -1.024962       -27.8906 
   5   2.0000      -0.803800       -21.8725 
   6   2.0000      -0.675166       -18.3722 
   7   2.0000      -0.624263       -16.9871 
   8   2.0000      -0.606710       -16.5094 
   9   2.0000      -0.563403       -15.3310 
  10   2.0000      -0.502984       -13.6869 
  11   2.0000      -0.428193       -11.6517 
  12   0.0000       0.026181         0.7124 
  13   0.0000       0.038507         1.0478 
  14   0.0000       0.042203         1.1484 
  15   0.0000       0.053201         1.4477 
  16   0.0000       0.088627         2.4117 
  17   0.0000       0.092899         2.5279 
  18   0.0000       0.098205         2.6723 
  19   0.0000       0.120440         3.2773 
  20   0.0000       0.127810         3.4779 
  21   0.0000       0.128644         3.5006 
  22   0.0000       0.133618         3.6359 
  23   0.0000       0.139548         3.7973 
  24   0.0000       0.177213         4.8222 
  25   0.0000       0.193504         5.2655 
  26   0.0000       0.202957         5.5228 
  27   0.0000       0.221839         6.0365 
  28   0.0000       0.236279         6.4295 
  29   0.0000       0.238207         6.4819 
  30   0.0000       0.267638         7.2828 
  31   0.0000       0.278976         7.5913 
  32   0.0000       0.279136         7.5957 
  33   0.0000       0.295086         8.0297 
  34   0.0000       0.309758         8.4289 
  35   0.0000       0.325455         8.8561 
  36   0.0000       0.335825         9.1383 
  37   0.0000       0.338162         9.2019 
  38   0.0000       0.350819         9.5463 
  39   0.0000       0.361039         9.8244 
  40   0.0000       0.380872        10.3641 
  41   0.0000       0.389810        10.6073 
  42   0.0000       0.408946        11.1280 
  43   0.0000       0.414395        11.2763 
  44   0.0000       0.416518        11.3340 
  45   0.0000       0.431368        11.7381 
  46   0.0000       0.437044        11.8926 
  47   0.0000       0.438649        11.9362 
  48   0.0000       0.451665        12.2904 
  49   0.0000       0.474521        12.9124 
  50   0.0000       0.487490        13.2653 
  51   0.0000       0.521374        14.1873 
  52   0.0000       0.534894        14.5552 
  53   0.0000       0.539156        14.6712 
  54   0.0000       0.573271        15.5995 
  55   0.0000       0.581608        15.8264 
  56   0.0000       0.625510        17.0210 
  57   0.0000       0.674669        18.3587 
  58   0.0000       0.687463        18.7068 
  59   0.0000       0.722117        19.6498 
  60   0.0000       0.735374        20.0105 
  61   0.0000       0.756197        20.5772 
  62   0.0000       0.793030        21.5794 
  63   0.0000       0.801403        21.8073 
  64   0.0000       0.819947        22.3119 
  65   0.0000       0.825576        22.4651 
  66   0.0000       0.849971        23.1289 
  67   0.0000       0.861939        23.4546 
  68   0.0000       0.868748        23.6398 
  69   0.0000       0.877880        23.8883 
  70   0.0000       0.896563        24.3967 
  71   0.0000       0.903603        24.5883 
  72   0.0000       0.924138        25.1471 
  73   0.0000       0.948259        25.8034 
  74   0.0000       0.953491        25.9458 
  75   0.0000       0.954469        25.9724 
  76   0.0000       0.960226        26.1291 
  77   0.0000       0.978381        26.6231 
  78   0.0000       0.988717        26.9044 
  79   0.0000       1.014785        27.6137 
  80   0.0000       1.033508        28.1232 
  81   0.0000       1.044266        28.4159 
  82   0.0000       1.065381        28.9905 
  83   0.0000       1.066008        29.0075 
  84   0.0000       1.090507        29.6742 
  85   0.0000       1.109915        30.2023 
  86   0.0000       1.112126        30.2625 
  87   0.0000       1.132902        30.8278 
  88   0.0000       1.180155        32.1137 
  89   0.0000       1.188022        32.3277 
  90   0.0000       1.203209        32.7410 
  91   0.0000       1.203921        32.7603 
  92   0.0000       1.242383        33.8070 
  93   0.0000       1.269174        34.5360 
  94   0.0000       1.271354        34.5953 
  95   0.0000       1.284519        34.9535 
  96   0.0000       1.326307        36.0906 
  97   0.0000       1.353131        36.8206 
  98   0.0000       1.391075        37.8531 
  99   0.0000       1.417542        38.5733 
 100   0.0000       1.452970        39.5373 
 101   0.0000       1.465852        39.8878 
 102   0.0000       1.508880        41.0587 
 103   0.0000       1.522032        41.4166 
 104   0.0000       1.552818        42.2543 
 105   0.0000       1.575527        42.8723 
 106   0.0000       1.610374        43.8205 
 107   0.0000       1.639544        44.6143 
 108   0.0000       1.654041        45.0088 
 109   0.0000       1.667545        45.3762 
 110   0.0000       1.686004        45.8785 
 111   0.0000       1.690549        46.0022 
 112   0.0000       1.741124        47.3784 
 113   0.0000       1.744998        47.4838 
 114   0.0000       1.760327        47.9009 
 115   0.0000       1.777167        48.3592 
 116   0.0000       1.807586        49.1869 
 117   0.0000       1.859718        50.6055 
 118   0.0000       1.876737        51.0686 
 119   0.0000       1.882451        51.2241 
 120   0.0000       1.970616        53.6232 
 121   0.0000       1.974516        53.7293 
 122   0.0000       2.014285        54.8115 
 123   0.0000       2.073959        56.4353 
 124   0.0000       2.095882        57.0319 
 125   0.0000       2.145773        58.3895 
 126   0.0000       2.178011        59.2667 
 127   0.0000       2.207606        60.0720 
 128   0.0000       2.229521        60.6684 
 129   0.0000       2.243479        61.0482 
 130   0.0000       2.293938        62.4212 
 131   0.0000       2.360479        64.2319 
 132   0.0000       2.363516        64.3146 
 133   0.0000       2.455375        66.8142 
 134   0.0000       2.480990        67.5112 
 135   0.0000       2.483249        67.5726 
 136   0.0000       2.574059        70.0437 
 137   0.0000       2.587068        70.3977 
 138   0.0000       2.641214        71.8711 
 139   0.0000       2.729885        74.2840 
 140   0.0000       2.763246        75.1918 
 141   0.0000       2.825093        76.8747 
 142   0.0000       2.909162        79.1623 
 143   0.0000       2.911811        79.2344 
 144   0.0000       2.958155        80.4955 
 145   0.0000       3.037235        82.6474 
 146   0.0000       3.143976        85.5519 
 147   0.0000       3.186661        86.7135 
 148   0.0000       3.221240        87.6544 
 149   0.0000       3.326453        90.5174 
 150   0.0000       3.346180        91.0542 
 151   0.0000       3.380488        91.9877 
 152   0.0000       3.413925        92.8976 
 153   0.0000       3.485760        94.8523 
 154   0.0000       3.488546        94.9282 
 155   0.0000       3.500306        95.2482 
 156   0.0000       3.567534        97.0775 
 157   0.0000       3.581979        97.4706 
 158   0.0000       3.596145        97.8561 
 159   0.0000       3.599464        97.9464 
 160   0.0000       3.657753        99.5325 
 161   0.0000       3.695716       100.5655 
 162   0.0000       3.820051       103.9489 
 163   0.0000       3.853400       104.8563 
 164   0.0000       3.855964       104.9261 
 165   0.0000       3.865984       105.1988 
 166   0.0000       3.933111       107.0254 
 167   0.0000       3.937112       107.1343 
 168   0.0000       4.005489       108.9949 
 169   0.0000       4.005767       109.0025 
 170   0.0000       4.073019       110.8325 
 171   0.0000       4.081959       111.0758 
 172   0.0000       4.092593       111.3651 
 173   0.0000       4.128324       112.3374 
 174   0.0000       4.194451       114.1368 
 175   0.0000       4.201216       114.3209 
 176   0.0000       4.252804       115.7247 
 177   0.0000       4.305542       117.1597 
 178   0.0000       4.318438       117.5107 
 179   0.0000       4.325081       117.6914 
 180   0.0000       4.475304       121.7792 
 181   0.0000       4.478358       121.8623 
 182   0.0000       4.573590       124.4537 
 183   0.0000       4.600883       125.1964 
 184   0.0000       4.680841       127.3722 
 185   0.0000       4.739930       128.9801 
 186   0.0000       4.756764       129.4381 
 187   0.0000       4.809375       130.8697 
 188   0.0000       4.824389       131.2783 
 189   0.0000       4.879409       132.7755 
 190   0.0000       4.888802       133.0311 
 191   0.0000       4.903500       133.4310 
 192   0.0000       4.991501       135.8257 
 193   0.0000       5.064116       137.8016 
 194   0.0000       5.084125       138.3461 
 195   0.0000       5.095164       138.6465 
 196   0.0000       5.214192       141.8854 
 197   0.0000       5.223460       142.1376 
 198   0.0000       5.271213       143.4370 
 199   0.0000       5.328147       144.9862 
 200   0.0000       5.362260       145.9145 
 201   0.0000       5.502989       149.7440 
 202   0.0000       5.519972       150.2061 
 203   0.0000       5.635149       153.3402 
 204   0.0000       5.661197       154.0490 
 205   0.0000       5.678301       154.5144 
 206   0.0000       5.849916       159.1843 
 207   0.0000       5.950699       161.9268 
 208   0.0000       6.052686       164.7020 
 209   0.0000       6.099624       165.9792 
 210   0.0000       6.190297       168.4466 
 211   0.0000       6.278663       170.8511 
 212   0.0000       6.394576       174.0052 
 213   0.0000       6.629248       180.3910 
 214   0.0000       6.654702       181.0836 
 215   0.0000       6.675248       181.6427 
 216   0.0000       6.691211       182.0771 
 217   0.0000       6.969112       189.6392 
 218   0.0000       7.005214       190.6216 
 219   0.0000       7.183147       195.4634 
 220   0.0000       7.285401       198.2459 
 221   0.0000       7.316245       199.0852 
 222   0.0000       7.502964       204.1660 
 223   0.0000       7.592298       206.5969 
 224   0.0000       7.634892       207.7560 
 225   0.0000       7.784861       211.8368 
 226   0.0000       7.856010       213.7729 
 227   0.0000      15.134176       411.8219 
 228   0.0000      16.672218       453.6741 
 229   0.0000      18.148934       493.8576 

                    ********************************
                    * MULLIKEN POPULATION ANALYSIS *
                    ********************************

-----------------------
MULLIKEN ATOMIC CHARGES
-----------------------
   0 C :   -0.693784
   1 C :   -0.082944
   2 O :   -0.628405
   3 H :    0.319470
   4 H :    0.294695
   5 H :    0.294740
   6 H :    0.496227
Sum of atomic charges:   -0.0000000

--------------------------------
MULLIKEN REDUCED ORBITAL CHARGES
--------------------------------
  0 C s       :     3.128566  s :     3.128566
      pz      :     1.221284  p :     3.425949
      px      :     0.931979
      py      :     1.272686
      dz2     :     0.024989  d :     0.133273
      dxz     :     0.029636
      dyz     :     0.043492
      dx2y2   :     0.028566
      dxy     :     0.006590
      f0      :     0.000526  f :     0.005996
      f+1     :    -0.001135
      f-1     :     0.000080
      f+2     :     0.003061
      f-2     :     0.000896
      f+3     :     0.002725
      f-3     :    -0.000157
  1 C s       :     3.490146  s :     3.490146
      pz      :     0.646822  p :     2.390308
      px      :     0.881709
      py      :     0.861777
      dz2     :     0.004954  d :     0.167802
      dxz     :     0.025775
      dyz     :     0.035036
      dx2y2   :     0.097930
      dxy     :     0.004108
      f0      :     0.001836  f :     0.034688
      f+1     :     0.002164
      f-1     :     0.001819
      f+2     :     0.005007
      f-2     :     0.004029
      f+3     :     0.004886
      f-3     :     0.014947
  2 O s       :     3.973640  s :     3.973640
      pz      :     1.414368  p :     4.601201
      px      :     1.709282
      py      :     1.477551
      dz2     :     0.003920  d :     0.048949
      dxz     :     0.008069
      dyz     :     0.012618
      dx2y2   :     0.014489
      dxy     :     0.009853
      f0      :     0.000340  f :     0.004615
      f+1     :     0.000300
      f-1     :     0.000361
      f+2     :     0.000239
      f-2     :     0.001133
      f+3     :     0.000909
      f-3     :     0.001333
  3 H s       :     0.629418  s :     0.629418
      pz      :     0.016344  p :     0.046037
      px      :     0.016661
      py      :     0.013032
      dz2     :     0.001100  d :     0.005074
      dxz     :     0.000245
      dyz     :     0.001102
      dx2y2   :     0.001257
      dxy     :     0.001370
  4 H s       :     0.650096  s :     0.650096
      pz      :     0.016661  p :     0.048941
      px      :     0.013406
      py      :     0.018873
      dz2     :     0.001434  d :     0.006269
      dxz     :    -0.000288
      dyz     :     0.002959
      dx2y2   :     0.001748
      dxy     :     0.000416
  5 H s       :     0.650064  s :     0.650064
      pz      :     0.018056  p :     0.048927
      px      :     0.010518
      py      :     0.020353
      dz2     :     0.002788  d :     0.006269
      dxz     :     0.000522
      dyz     :    -0.001030
      dx2y2   :     0.002297
      dxy     :     0.001693
  6 H s       :     0.518919  s :     0.518919
      pz      :    -0.006665  p :    -0.014565
      px      :     0.012845
      py      :    -0.020745
      dz2     :    -0.000802  d :    -0.000581
      dxz     :     0.000461
      dyz     :    -0.001512
      dx2y2   :    -0.001388
      dxy     :     0.002660


                     *******************************
                     * LOEWDIN POPULATION ANALYSIS *
                     *******************************

----------------------
LOEWDIN ATOMIC CHARGES
----------------------
   0 C :    0.564111
   1 C :   -0.231482
   2 O :    0.415211
   3 H :   -0.187684
   4 H :   -0.185185
   5 H :   -0.185182
   6 H :   -0.189790

-------------------------------
LOEWDIN REDUCED ORBITAL CHARGES
-------------------------------
  0 C s       :     2.474961  s :     2.474961
      pz      :     0.769775  p :     2.301637
      px      :     0.751859
      py      :     0.780002
      dz2     :     0.070908  d :     0.483882
      dxz     :     0.100783
      dyz     :     0.079492
      dx2y2   :     0.129087
      dxy     :     0.103612
      f0      :     0.019362  f :     0.175410
      f+1     :     0.026072
      f-1     :     0.006904
      f+2     :     0.028092
      f-2     :     0.014000
      f+3     :     0.029078
      f-3     :     0.051902
  1 C s       :     2.540105  s :     2.540105
      pz      :     0.521086  p :     2.173512
      px      :     0.834679
      py      :     0.817747
      dz2     :     0.076667  d :     1.037268
      dxz     :     0.168518
      dyz     :     0.137168
      dx2y2   :     0.347735
      dxy     :     0.307180
      f0      :     0.040932  f :     0.480596
      f+1     :     0.031946
      f-1     :     0.030646
      f+2     :     0.057683
      f-2     :     0.060681
      f+3     :     0.092157
      f-3     :     0.166552
  2 O s       :     3.228747  s :     3.228747
      pz      :     1.180798  p :     4.071598
      px      :     1.477107
      py      :     1.413692
      dz2     :     0.022487  d :     0.212616
      dxz     :     0.013518
      dyz     :     0.033869
      dx2y2   :     0.083306
      dxy     :     0.059436
      f0      :     0.005163  f :     0.071829
      f+1     :     0.005066
      f-1     :     0.005872
      f+2     :     0.005652
      f-2     :     0.009096
      f+3     :     0.014299
      f-3     :     0.026681
  3 H s       :     0.647119  s :     0.647119
      pz      :     0.092628  p :     0.310378
      px      :     0.083308
      py      :     0.134442
      dz2     :     0.036771  d :     0.230186
      dxz     :     0.016849
      dyz     :     0.060811
      dx2y2   :     0.066561
      dxy     :     0.049194
  4 H s       :     0.642988  s :     0.642988
      pz      :     0.136151  p :     0.313654
      px      :     0.089232
      py      :     0.088271
      dz2     :     0.066319  d :     0.228543
      dxz     :     0.045590
      dyz     :     0.073546
      dx2y2   :     0.030998
      dxy     :     0.012089
  5 H s       :     0.643006  s :     0.643006
      pz      :     0.111056  p :     0.313645
      px      :     0.080808
      py      :     0.121780
      dz2     :     0.065590  d :     0.228531
      dxz     :     0.030187
      dyz     :     0.040854
      dx2y2   :     0.052680
      dxy     :     0.039221
  6 H s       :     0.714179  s :     0.714179
      pz      :     0.064648  p :     0.273500
      px      :     0.082643
      py      :     0.126209
      dz2     :     0.028884  d :     0.202112
      dxz     :     0.017448
      dyz     :     0.049322
      dx2y2   :     0.057604
      dxy     :     0.048854


                      *****************************
                      * MAYER POPULATION ANALYSIS *
                      *****************************

  NA   - Mulliken gross atomic population
  ZA   - Total nuclear charge
  QA   - Mulliken gross atomic charge
  VA   - Mayer's total valence
  BVA  - Mayer's bonded valence
  FA   - Mayer's free valence

  ATOM       NA         ZA         QA         VA         BVA        FA
  0 C      6.6938     6.0000    -0.6938     3.6379     3.6379    -0.0000
  1 C      6.0829     6.0000    -0.0829     3.2886     3.2886    -0.0000
  2 O      8.6284     8.0000    -0.6284     1.6709     1.6709     0.0000
  3 H      0.6805     1.0000     0.3195     0.9969     0.9969     0.0000
  4 H      0.7053     1.0000     0.2947     1.0099     1.0099    -0.0000
  5 H      0.7053     1.0000     0.2947     1.0098     1.0098    -0.0000
  6 H      0.5038     1.0000     0.4962     0.6777     0.6777    -0.0000

  Mayer bond orders larger than 0.100000
B(  0-C ,  1-C ) :   0.8871 B(  0-C ,  3-H ) :   0.9027 B(  0-C ,  4-H ) :   0.9149 
B(  0-C ,  5-H ) :   0.9149 B(  1-C ,  2-O ) :   1.6791 B(  1-C ,  6-H ) :   0.6767 


-------
TIMINGS
-------

Total SCF time: 0 days 0 hours 0 min 10 sec 

Total time                  ....      10.708 sec
Sum of individual times     ....      10.414 sec  ( 97.3%)

Fock matrix formation       ....       9.781 sec  ( 91.3%)
Diagonalization             ....       0.113 sec  (  1.1%)
Density matrix formation    ....       0.139 sec  (  1.3%)
Population analysis         ....       0.013 sec  (  0.1%)
Initial guess               ....       0.126 sec  (  1.2%)
Orbital Transformation      ....       0.000 sec  (  0.0%)
Orbital Orthonormalization  ....       0.000 sec  (  0.0%)
DIIS solution               ....       0.067 sec  (  0.6%)
SOSCF solution              ....       0.159 sec  (  1.5%)


           ************************************************************
           *        Program running with 16 parallel MPI-processes    *
           *              working on a common directory               *
           ************************************************************


------------------------------------------------------------------------------- 
                              ORCA-MATRIX DRIVEN CI                            
------------------------------------------------------------------------------- 


Wavefunction type
-----------------
Correlation treatment                      ...      CCSD     
Single excitations                         ... ON
Orbital optimization                       ... OFF
Calculation of Z vector                    ... OFF
Calculation of Brueckner orbitals          ... OFF
Perturbative triple excitations            ... ON
Calculation of F12 correction              ... OFF
Frozen core treatment                      ... chemical core (6 el)
Reference Wavefunction                     ... RHF
  Internal Orbitals:     3 ...   11 (  9 MO's/ 18 electrons)
  Virtual  Orbitals:    12 ...  229 (218 MO's              )
Number of AO's                             ...    230
Number of electrons                        ...     24
Number of correlated electrons             ...     18

Algorithmic settings
--------------------
Integral transformation                    ... All integrals via the RI transformation
K(C) Formation                             ... RI-DLPNO
   PNO-Integral Storage                    ... ON DISK
   PNO occupation number cut-off           ... 3.330e-07
   Singles PNO occupation number cut-off   ... 9.990e-09
   PNO Mulliken prescreening cut-off       ... 1.000e-03
   Domain cut-off (Mulliken population)    ... 1.000e-03
   PNO Normalization                       ...    1
Maximum number of iterations               ...        50
Convergence tolerance (max. residuum)      ... 1.000e-05
Level shift for amplitude update           ... 2.000e-01
Maximum number of DIIS vectors             ...         7
DIIS turned on at iteration                ...         0
Damping before turning on DIIS             ...     0.500
Damping after turning on DIIS              ...     0.000
Pair specific amplitude update             ... OFF
Natural orbital iterations                 ... OFF
Perturbative natural orbital generation    ... OFF
Printlevel                                 ... 2

Singles Fock matrix elements calculated using PNOs.

Memory handling:
----------------
Maximum memory for working arrays          ...   1000 MB
Data storage in matrix containers          ... UNCOMPRESSED
Data type for integral storage             ... DOUBLE
In-Core Storage of quantities:
   Amplitudes+Sigma Vector      ... NO
   J+K operators                ... NO
   DIIS vectors                 ... NO
   3-external integrals         ... NO
   4-external integrals         ... NO

Localization treatment:
-----------------------
Localization option                        ...    6
Localization threshhold                    ... -1.0e+00
Using relative localization threshhold     ... 1.0e-08
Neglect threshold for strong pairs         ... 1.000e-04 Eh
Prescreening threshold for very weak pairs ... 1.000e-06 Eh

Initializing the integral package          ... done
Localizing the valence orbitals
------------------------------------------------------------------------------
                           ORCA ORBITAL LOCALIZATION
------------------------------------------------------------------------------

Input orbitals are from                  ... acetaldehyde_DLPNO-CCSDT_aug-cc-pVTZ_SPE.gbw
Output orbitals are to                   ... acetaldehyde_DLPNO-CCSDT_aug-cc-pVTZ_SPE.loc
Max. number of iterations                ... 128
Localizations seeded randomly            ... off
Convergence tolerance                    ... 1.000e-06
Using relative localization threshhold   ... 1.000e-08
Treshold for strong local MOs            ... 9.500e-01
Treshold for bond MOs                    ... 8.500e-01
Operator                                 ... 0
Orbital range for localization           ... 3 to 11
Localization criterion                   ... FOSTER-BOYS (AUGMENTED HESSIAN)
Doing the dipole integrals     ... o.k.
Initial value of the localization sum :    41.575808
ITERATION   0 : L=   57.7062705461 DL=  1.61e+01 (AVERGE_DL)=    0.6693791269 
ITERATION   1 : L=   59.6301121564 DL=  1.92e+00 (AVERGE_DL)=    0.2311710292 
ITERATION   2 : L=   59.6569417969 DL=  2.68e-02 (AVERGE_DL)=    0.0272995933 
ITERATION   3 : L=   59.6574163221 DL=  4.75e-04 (AVERGE_DL)=    0.0036305999 
ITERATION   4 : L=   59.6574735896 DL=  5.73e-05 (AVERGE_DL)=    0.0012612545 
ITERATION   5 : L=   59.6574794693 DL=  5.88e-06 (AVERGE_DL)=    0.0004041361 
ITERATION   6 : L=   59.6574800872 DL=  6.18e-07 (AVERGE_DL)=    0.0001310088 
LOCALIZATION SUM CONVERGED

------------------------------------------------------
AUGMENTED HESSIAN OPTIMIZATION OF FOSTER-BOYS ORBITALS
------------------------------------------------------

Spin operator:           0
Orbital window:          3 to 11
Number of iterations:    128
Gradient tolerance:      1.000e-06
Number of pairs:         36
Davidson threshold:      2000
Diagonalization method:  LAPACK
Iter:    0   L: 59.6574800872   Grad. norm: 6.100027e-04
   *** Likely close to a maximum now. ***
       Augmented Hessian eigenvalues:  1.24e-07 -1.64e+00 -2.46e+00 -3.15e+00 ... 
Iter:    1   L: 59.6574801493   Grad. norm: 6.024786e-08
LOCALIZATION HAS CONVERGED.

Eigenvalues of the Hessian:
  0 -1.641e+00
  1 -2.459e+00
  2 -3.155e+00
  3 -5.531e+00
  4 -6.796e+00
  5 -7.293e+00
  6 -1.579e+01
  7 -1.667e+01
  8 -1.724e+01
  9 -2.184e+01
    ...


------------------------------------------------------------------------------- 
                    LOCALIZED MOLECULAR ORBITAL COMPOSITIONS                   
------------------------------------------------------------------------------- 

The Mulliken populations for each LMO on each atom are computed
The LMO`s will be ordered according to atom index and type
  (A) Strongly localized MO`s have populations of >=0.950 on one atom
  (B) Two center bond orbitals have populations of >=0.850 on two atoms
  (C) Other MO`s are considered to be `delocalized`

FOUND  -   2 strongly local MO`s
       -   7 two center bond MO`s
       -   0 significantly delocalized MO`s

Rather strongly localized orbitals:
MO   4:   2O  -   1.002699
MO   3:   2O  -   1.016123
Bond-like localized orbitals:
MO  11:   6H  -   0.273610  and   1C  -   0.737158
MO  10:   5H  -   0.315262  and   0C  -   0.660013
MO   9:   4H  -   0.315259  and   0C  -   0.659985
MO   8:   3H  -   0.299691  and   0C  -   0.678168
MO   7:   2O  -   0.661061  and   1C  -   0.362915
MO   6:   2O  -   0.661006  and   1C  -   0.363002
MO   5:   1C  -   0.611850  and   0C  -   0.373313
Localized MO's were stored in: acetaldehyde_DLPNO-CCSDT_aug-cc-pVTZ_SPE.loc

Localizing the core orbitals
------------------------------------------------------------------------------
                           ORCA ORBITAL LOCALIZATION
------------------------------------------------------------------------------

Input orbitals are from                  ... acetaldehyde_DLPNO-CCSDT_aug-cc-pVTZ_SPE.loc
Output orbitals are to                   ... acetaldehyde_DLPNO-CCSDT_aug-cc-pVTZ_SPE.loc
Max. number of iterations                ... 128
Localizations seeded randomly            ... off
Convergence tolerance                    ... 1.000e-06
Using relative localization threshhold   ... 1.000e-08
Treshold for strong local MOs            ... 9.500e-01
Treshold for bond MOs                    ... 8.500e-01
Operator                                 ... 0
Orbital range for localization           ... 0 to 2
Localization criterion                   ... FOSTER-BOYS (AUGMENTED HESSIAN)
Doing the dipole integrals     ... o.k.
Initial value of the localization sum :    13.491074
ITERATION   0 : L=   13.4910770367 DL=  2.95e-06 (AVERGE_DL)=    0.0009920253 
ITERATION   1 : L=   13.4910770367 DL=  0.00e+00 (AVERGE_DL)=    0.0000000000 
LOCALIZATION SUM CONVERGED

------------------------------------------------------
AUGMENTED HESSIAN OPTIMIZATION OF FOSTER-BOYS ORBITALS
------------------------------------------------------

Spin operator:           0
Orbital window:          0 to 2
Number of iterations:    128
Gradient tolerance:      1.000e-06
Number of pairs:         3
Davidson threshold:      2000
Diagonalization method:  LAPACK
Iter:    0   L: 13.4910770367   Grad. norm: 1.411515e-06
   *** Likely close to a maximum now. ***
       Augmented Hessian eigenvalues:  6.22e-14 -2.11e+01 -3.20e+01 -8.25e+01
Iter:    1   L: 13.4910770367   Grad. norm: 1.767052e-20
LOCALIZATION HAS CONVERGED.

Eigenvalues of the Hessian:
  0 -2.109e+01
  1 -3.204e+01
  2 -8.253e+01


------------------------------------------------------------------------------- 
                    LOCALIZED MOLECULAR ORBITAL COMPOSITIONS                   
------------------------------------------------------------------------------- 

The Mulliken populations for each LMO on each atom are computed
The LMO`s will be ordered according to atom index and type
  (A) Strongly localized MO`s have populations of >=0.950 on one atom
  (B) Two center bond orbitals have populations of >=0.850 on two atoms
  (C) Other MO`s are considered to be `delocalized`

FOUND  -   3 strongly local MO`s
       -   0 two center bond MO`s
       -   0 significantly delocalized MO`s

Rather strongly localized orbitals:
MO   2:   2O  -   0.999620
MO   1:   1C  -   1.002491
MO   0:   0C  -   1.000025
Localized MO's were stored in: acetaldehyde_DLPNO-CCSDT_aug-cc-pVTZ_SPE.loc

Warning: reference  - re-canonicalizations have been set to INT 1 VIRT 1
Warning: internal orbitals are localized - no re-canonicalization of internal orbitals
Warning: UsePNO is turned on - no re-canonicalization of internal and virtual orbitals

--------------------------
CLOSED-SHELL FOCK OPERATOR
--------------------------

<ss|ss>:       123256 b         2512 skpd (  2.0%)    0.007 s ( 0.000 ms/b)
<ss|sp>:       369024 b         8160 skpd (  2.2%)    0.028 s ( 0.000 ms/b)
<ss|sd>:       261392 b         5827 skpd (  2.2%)    0.024 s ( 0.000 ms/b)
<ss|sf>:        92256 b         1669 skpd (  1.8%)    0.013 s ( 0.000 ms/b)
<ss|pp>:       147808 b         2236 skpd (  1.5%)    0.010 s ( 0.000 ms/b)
<ss|pd>:       202368 b         4840 skpd (  2.4%)    0.022 s ( 0.000 ms/b)
<ss|pf>:        71424 b         1643 skpd (  2.3%)    0.011 s ( 0.000 ms/b)
<ss|dd>:        75888 b         1905 skpd (  2.5%)    0.010 s ( 0.000 ms/b)
<ss|df>:        50592 b          865 skpd (  1.7%)    0.011 s ( 0.000 ms/b)
<ss|ff>:        10416 b          123 skpd (  1.2%)    0.003 s ( 0.000 ms/b)
<sp|sp>:       277140 b         6614 skpd (  2.4%)    0.015 s ( 0.000 ms/b)
<sp|sd>:       392088 b         9494 skpd (  2.4%)    0.030 s ( 0.000 ms/b)
<sp|sf>:       138384 b         2750 skpd (  2.0%)    0.018 s ( 0.000 ms/b)
<sp|pp>:       221712 b         3683 skpd (  1.7%)    0.016 s ( 0.000 ms/b)
<sp|pd>:       303552 b         7736 skpd (  2.5%)    0.035 s ( 0.000 ms/b)
<sp|pf>:       107136 b         2707 skpd (  2.5%)    0.017 s ( 0.000 ms/b)
<sp|dd>:       113832 b         3040 skpd (  2.7%)    0.019 s ( 0.000 ms/b)
<sp|df>:        75888 b         1420 skpd (  1.9%)    0.020 s ( 0.000 ms/b)
<sp|ff>:        15624 b          198 skpd (  1.3%)    0.008 s ( 0.001 ms/b)
<sd|sd>:       139128 b         3715 skpd (  2.7%)    0.018 s ( 0.000 ms/b)
<sd|sf>:        98022 b         2217 skpd (  2.3%)    0.023 s ( 0.000 ms/b)
<sd|pp>:       157046 b         2638 skpd (  1.7%)    0.022 s ( 0.000 ms/b)
<sd|pd>:       215016 b         6089 skpd (  2.8%)    0.046 s ( 0.000 ms/b)
<sd|pf>:        75888 b         2096 skpd (  2.8%)    0.024 s ( 0.000 ms/b)
<sd|dd>:        80631 b         2376 skpd (  2.9%)    0.030 s ( 0.000 ms/b)
<sd|df>:        53754 b         1255 skpd (  2.3%)    0.029 s ( 0.001 ms/b)
<sd|ff>:        11067 b          150 skpd (  1.4%)    0.013 s ( 0.001 ms/b)
<sf|sf>:        17391 b          333 skpd (  1.9%)    0.009 s ( 0.001 ms/b)
<sf|pp>:        55428 b          715 skpd (  1.3%)    0.014 s ( 0.000 ms/b)
<sf|pd>:        75888 b         1817 skpd (  2.4%)    0.030 s ( 0.000 ms/b)
<sf|pf>:        26784 b          639 skpd (  2.4%)    0.016 s ( 0.001 ms/b)
<sf|dd>:        28458 b          715 skpd (  2.5%)    0.016 s ( 0.001 ms/b)
<sf|df>:        18972 b          384 skpd (  2.0%)    0.020 s ( 0.001 ms/b)
<sf|ff>:         3906 b           42 skpd (  1.1%)    0.009 s ( 0.002 ms/b)
<pp|pp>:        44551 b          398 skpd (  0.9%)    0.007 s ( 0.000 ms/b)
<pp|pd>:       121584 b         2144 skpd (  1.8%)    0.031 s ( 0.000 ms/b)
<pp|pf>:        42912 b          735 skpd (  1.7%)    0.015 s ( 0.000 ms/b)
<pp|dd>:        45594 b          859 skpd (  1.9%)    0.018 s ( 0.000 ms/b)
<pp|df>:        30396 b          338 skpd (  1.1%)    0.019 s ( 0.001 ms/b)
<pp|ff>:         6258 b           30 skpd (  0.5%)    0.008 s ( 0.001 ms/b)
<pd|pd>:        83436 b         2438 skpd (  2.9%)    0.045 s ( 0.001 ms/b)
<pd|pf>:        58752 b         1668 skpd (  2.8%)    0.037 s ( 0.001 ms/b)
<pd|dd>:        62424 b         1980 skpd (  3.2%)    0.045 s ( 0.001 ms/b)
<pd|df>:        41616 b         1111 skpd (  2.7%)    0.049 s ( 0.001 ms/b)
<pd|ff>:         8568 b          142 skpd (  1.7%)    0.021 s ( 0.003 ms/b)
<pf|pf>:        10440 b          298 skpd (  2.9%)    0.012 s ( 0.001 ms/b)
<pf|dd>:        22032 b          658 skpd (  3.0%)    0.025 s ( 0.001 ms/b)
<pf|df>:        14688 b          367 skpd (  2.5%)    0.029 s ( 0.002 ms/b)
<pf|ff>:         3024 b           43 skpd (  1.4%)    0.013 s ( 0.004 ms/b)
<dd|dd>:        11781 b          381 skpd (  3.2%)    0.016 s ( 0.001 ms/b)
<dd|df>:        15606 b          457 skpd (  2.9%)    0.034 s ( 0.002 ms/b)
<dd|ff>:         3213 b           46 skpd (  1.4%)    0.015 s ( 0.005 ms/b)
<df|df>:         5253 b          147 skpd (  2.8%)    0.020 s ( 0.004 ms/b)
<df|ff>:         2142 b           26 skpd (  1.2%)    0.018 s ( 0.008 ms/b)
<ff|ff>:          231 b            0 skpd (  0.0%)    0.004 s ( 0.018 ms/b)
Time needed for Fock operator              ...            1.135 sec
Reference energy                           ...   -152.976308529

--------------
DLPNO SETTINGS (2015 fully linear scaling implementation)
--------------

TCutMKN:           1.000e-03
TCutPAO:           1.000e-03
TCutPNO:           3.330e-07
TCutPNOSingles:    9.990e-09
TCutEN:            9.700e-01
TCutPAOExt:        1.000e-01
TCutPairs:         1.000e-04
TCutPre:           1.000e-06
TCutOSV:           1.000e-06
TCutDOij:          1.000e-05
TCutDO:            1.000e-02
TCutC:             1.000e-04
TCutCPAO:          1.000e-03
TCutCMO:           1.000e-03
TScaleDOMP2PreScr: 2.000e+00
TScaleMKNMP2PreScr:1.000e+01
TScalePNOMP2PreScr:1.000e+00
PAO overlap thresh 1.000e-08
Using PNOs for Singles Fock computation
Use new domains
Use fully linear algorithm
TCutTNO:           1.000e-09
TCutMP2Pairs:      1.000e-05
TCutDOStrong:      2.000e-03
TCutMKNStrong:     1.000e-02
TCutMKNWeak:       1.000e-01
TCutDOWeak:        4.000e-03
NTCutTNO:          1

--------------------------
Calculating differential overlap integrals ... ok
--------------------------
ELECTRON PAIR PRESCREENING
--------------------------

Dipole-based pair screening          .... used

   TCutDOij = 1.000000e-05
   TCutPre  = 1.000000e-06
   .... Finished loop over pairs
Total time spent in the prescreening                  ...     0.000 sec
sum of pair energies estimated for screened out pairs ...       0.000000000000 Eh
Thresholds for map construction and integral transformation for crude MP2:
   TCutMKN                    ...     1.0e-02
   TCutDO                     ...     2.0e-02
   TCutPairs                  ...     1.0e-04
   TCutPNO_CrudeMP2           ...     3.3e-07
   TCutPNOSingles_CrudeMP2    ...     1.0e-08
--------------------------------
LOCAL RI TRANSFORMATION (IAVPAO)
--------------------------------

Orbital window:       3 to 11
Number of PAOs:     230
Basis functions:    230 (78 shells)
Aux. functions:     502 (140 shells)

Processing maps (0.0 sec)
Average map sizes:
   Aux shells -> MOs               9.0
   Aux shells -> PAOs            230.0
   MOs        -> AO shells        78.0
   PAOs       -> AO shells        78.0

Calculating integrals (0.2 sec, 7.934 MB)
Sorting integrals (0.0 sec, 7.928 MB)
Total time for the integral transformation: 0.2 sec
--------------------------------
INITIAL GUESS AND PNO GENERATION
--------------------------------

PNO truncation parameters                   .... 
    PAOOverlapThresh   =        1.000e-08

    TCutPairs          =        1.000e-04
    TCutPNO            =        3.330e-07
    TCutPNOSingles     =        9.990e-09
    TCutMP2Pairs       =        1.000e-05
    TCutMKN            =        1.000e-02
    TCutDO             =        2.000e-02

Pair selection                          .... not used
Type of local MP2 treatment                 .... semi-local MP2
Strategy for PNO selection                  .... occupation number selection
Pair density normalization                  .... MP2 norm
Spin component scaling                      .... not used

   .... Finished loop over pairs
Making pair pair interaction lists          ... done

                       ===========================
                         45 OF   45 PAIRS ARE KEPT CCSD PAIRS
                          0 OF   45 PAIRS ARE KEPT MP2 PAIRS FOR (T)
                          0 OF   45 PAIRS ARE SKIPPED
                       ===========================

Total time spent in the initial guess                 ...     0.223 sec
SL-MP2 correlation energy (all non-screened pairs)    ...      -0.556276119287 Eh

Initial PNO correlation energy                        ...      -0.555317428158 Eh
sum of pair energies prescreened and skipped MP2 pairs...       0.000000000000 Eh
sum of pair energies of crude MP2 skipped pairs only  ...       0.000000000000 Eh
sum of MP2 pair energies for pairs that were not kept ...       0.000000000000 Eh
sum of PNO error estimates for the kept pairs         ...      -0.000958691130 Eh
                                                          --------------------
sum of all corrections                                         -0.000958691130
Initial total correlation energy                               -0.556276119287
Thresholds for map construction and integral transformation for fine MP2 and CCSD(T) calculation:
   TCutMKN   ...     1.0e-03
   TCutDO    ...     1.0e-02
   TCutPairs ...     1.0e-04
   TCutCMO   ...     1.0e-03
   TCutCPAO  ...     1.0e-03

Thresholds for map construction and integral transformation for strong Triples:
   TCutMKN   ...     1.0e-02
   TCutDO    ...     2.0e-02
   TCutCMO   ...     1.0e-03
   TCutCPAO  ...     1.0e-03

Thresholds for map construction and integral transformation for weak Triples:
   TCutMKN   ...     1.0e-01
   TCutDO    ...     4.0e-02
   TCutCMO   ...     1.0e-03
   TCutCPAO  ...     1.0e-03

--------------------------------
LOCAL RI TRANSFORMATION (IAVPAO)
--------------------------------

Orbital window:       3 to 11
Number of PAOs:     230
Basis functions:    230 (78 shells)
Aux. functions:     502 (140 shells)

Processing maps (0.0 sec)
Average map sizes:
   Aux shells -> MOs               9.0
   Aux shells -> PAOs            230.0
   MOs        -> AO shells        78.0
   PAOs       -> AO shells        78.0

Calculating integrals (0.2 sec, 7.934 MB)
Sorting integrals (0.0 sec, 7.928 MB)
Total time for the integral transformation: 0.2 sec
--------------------------------
INITIAL GUESS AND PNO GENERATION
--------------------------------

PNO truncation parameters                   .... 
    PAOOverlapThresh   =        1.000e-08

    TCutPairs          =        1.000e-04
    TCutPNO            =        3.330e-07
    TCutPNOSingles     =        9.990e-09
    TCutMP2Pairs       =        1.000e-05
    TCutMKN            =        1.000e-03
    TCutDO             =        1.000e-02

Pair selection                          .... not used
Type of local MP2 treatment                 .... semi-local MP2
Strategy for PNO selection                  .... occupation number selection
Pair density normalization                  .... MP2 norm
Spin component scaling                      .... not used

   .... Finished loop over pairs

 PNO Occupation Number Statistics: 
  | Av. % of trace(Dij) retained        ...  99.585421956522
  | sigma^2 in % of trace(Dij) retained ...   2.84e-01
  | Av. % of trace(Di) retained         ...  99.999084431481
  | sigma^2 in % of trace(Di) retained  ...   3.99e-08
 Distributions of % trace(Dij) recovered:
  |       >= 99.9  ...    26 ( 57.8 % of all pairs)
  |   [90.0, 99.0) ...     6 ( 13.3 % of all pairs)
  |   [99.0, 99.9) ...    13 ( 28.9 % of all pairs)
 Distributions of % trace(Di) recovered :
  |       >= 99.9  ...     9 (100.0 % of all I-pairs )

Making pair pair interaction lists          ... done

                       ===========================
                         45 OF   45 PAIRS ARE KEPT
                       ===========================

Total time spent in the initial guess                 ...     0.291 sec
SL-MP2 correlation energy (all non-screened pairs)    ...      -0.556326478453 Eh

Initial PNO correlation energy                        ...      -0.555366217490 Eh
sum of pair energies estimated for screened out pairs ...       0.000000000000 Eh
sum of MP2 pair energies for pairs that were not kept ...       0.000000000000 Eh
sum of PNO error estimates for the kept pairs         ...      -0.000960260963 Eh
                                                          --------------------
sum of all corrections                                         -0.000960260963
Initial total correlation energy                               -0.556326478453
Thresholds for map construction and integral transformation for fine MP2 and CCSD(T) calculation:
   TCutMKN   ...     1.0e-03
   TCutDO    ...     1.0e-02
   TCutPairs ...     1.0e-04
   TCutCMO   ...     1.0e-03
   TCutCPAO  ...     1.0e-03

Time for aux screen maps:            0.000
Time for maps after fine MP2:            0.002
-----------------------------
LOCAL RI TRANSFORMATION (IJV)
-----------------------------

Orbital window:       3 to 11
Basis functions:    230 (78 shells)
Aux. functions:     502 (140 shells)

Processing maps (0.0 sec)
Average map sizes:
   Aux shells -> MOs(i)            9.0
   Aux shells -> MOs(j)            9.0
   MOs        -> AO shells        78.0

Calculating integrals (0.2 sec, 0.316 MB)
Sorting integrals (0.0 sec, 0.310 MB)
Total time for the integral transformation: 0.2 sec
--------------------------------
LOCAL RI TRANSFORMATION (VABPAO)
--------------------------------

Number of PAOs:     230
Basis functions:    230 (78 shells)
Aux. functions:     502 (140 shells)

Processing maps (0.0 sec)
Average map sizes:
   Aux shells -> PAOs            230.0
   PAOs       -> AO shells        78.0

Calculating integrals (0.6 sec, 394.323 MB)
Finished


-------------------------------------
Pair Pair Term precalculation with     
RI-(ij|mn) and (im|jn) transformation  
ON THE FLY                             
-------------------------------------

   IBatch   1 (of   1)              ... done (    4.485 sec)
Total EXT                           ...           4.485 sec

---------------------
RI-PNO TRANSFORMATION
---------------------

Total Number of PNOs                   ...  1943
Average number of PNOs per pair        ...    43
Maximal number of PNOs per pair        ...    60
   #pairs with  1 -  5 PNOs   :    0
   #pairs with  6 - 10 PNOs   :    0
   #pairs with 11 - 15 PNOs   :    0
   #pairs with 16 - 20 PNOs   :    0
   #pairs with 21 - 25 PNOs   :    4
   #pairs with 26 - 30 PNOs   :    4
   #pairs with 31 - 35 PNOs   :    6
   #pairs with 36 - 40 PNOs   :    4
   #pairs with 41 - 45 PNOs   :    3
   #pairs with 46 - 50 PNOs   :    9
   #pairs with 51 - 55 PNOs   :    9
   #pairs with 56 - 60 PNOs   :    6

Generation of (ij|ab)[P] integrals            ... on
Generation of (ia|bc)[P],(ja|bc)[P] integrals ... on
Storage of 3 and 4 external integrals         ... on
Generation of ALL (ka|bc)[P] integrals        ... on
Keep RI integrals in memory                   ... off

Ibatch:  1 (of  1)
Starting 2-4 index PNO integral generation ... done

Timings:
Total PNO integral transformation time     ...          3.550 sec
Size of the 3-external file                ...        33 MB
Size of the 4-external file                ...       214 MB
Size of the IKJL file                      ...         0 MB
Size of the all 3-external file            ...       151 MB
Size of the 1-external file                ...         0 MB

Making pair/pair overlap matrices          ... done (    0.108 sec)
Size of the pair overlap file              ... 28 MB
Redoing the guess amplitudes               ... done (    0.001 sec)

-------------------------
FINAL STARTUP INFORMATION
-------------------------

E(0)                                       ...   -152.976308529
E(SL-MP2)                                  ...     -0.556326478
E(SL-MP2) including corrections            ...     -0.556326478
Initial E(tot)                             ...   -153.532635007
<T|T>                                      ...      0.146938793
Number of pairs included                   ... 45
Total number of pairs                      ... 45

------------------------------------------------
                  RHF COUPLED CLUSTER ITERATIONS
------------------------------------------------

Number of PNO amplitudes to be optimized   ...        89487
Number of non-PNO amplitudes               ...      2138580
Untruncated number of regular amplitudes   ...      2138580

Iter       E(tot)           E(Corr)          Delta-E          Residual     Time
  0   -153.532654670     -0.555385880      0.000940598      0.018483557    1.61
                           *** Turning on DIIS ***
  1   -153.552379883     -0.575111093     -0.019725213      0.015716596    1.59
  2   -153.567866302     -0.590597513     -0.015486420      0.007954851    1.56
  3   -153.571433906     -0.594165116     -0.003567603      0.004656468    1.53
  4   -153.572614378     -0.595345589     -0.001180472      0.002094606    1.51
  5   -153.572979608     -0.595710818     -0.000365229      0.000700245    1.52
  6   -153.573056709     -0.595787920     -0.000077102      0.000246209    1.59
  7   -153.573060049     -0.595791259     -0.000003339      0.000096438    1.56
  8   -153.573059191     -0.595790402      0.000000857      0.000033687    1.55
  9   -153.573056775     -0.595787986      0.000002416      0.000008884    1.55
               --- The Coupled-Cluster iterations have converged ---

----------------------
COUPLED CLUSTER ENERGY
----------------------

E(0)                                       ...   -152.976308529
E(CORR)(strong-pairs)                      ...     -0.595787986
E(CORR)(weak-pairs)                        ...     -0.000960261
E(CORR)(corrected)                         ...     -0.596748246
E(TOT)                                     ...   -153.573056775
Singles Norm <S|S>**1/2                    ...      0.058933368  
T1 diagnostic                              ...      0.013890728  

------------------
LARGEST AMPLITUDES
------------------
   6-> 12   6-> 12       0.063354
   7-> 12   7-> 12       0.063328
   7-> 12   6-> 12       0.051297
   9-> 13   9-> 13       0.040993
  10-> 13  10-> 13       0.040900
   8-> 12   8-> 12       0.040226
  11-> 13  11-> 13       0.039444
  11-> 16  11-> 16       0.032737
  11-> 12  11-> 12       0.029342
   6-> 12   6-> 21       0.026983
   6-> 21   6-> 12       0.026983
   7-> 12   7-> 21       0.026960
   7-> 21   7-> 12       0.026960
   7-> 12  -1-> -1       0.025970
   6-> 12  -1-> -1       0.025964
   8-> 15   8-> 15       0.025814


-------------------------------------------
DLPNO BASED TRIPLES CORRECTION
-------------------------------------------

Singles multiplier          ...  1.000000
TCutTNO                     ... 1.000e-09
TCutMP2Pairs                ... 1.000e-05
TCutDOStrong                ... 2.000e-02
TCutMKNStrong               ... 1.000e-02
TCutDOWeak                  ... 4.000e-02
TCutMKNWeak                 ... 1.000e-01

Fragment selection                          .... not used
Fock matrix occ-virt block is zero --> Setting DT_in_Triples to false.
Number of Triples that are to be computed   ...       156

 . . . . . . . . .
10% done  
20% done  
30% done  
40% done  
50% done  
60% done  
70% done  
80% done  
90% done               (     10.884 sec)
Triples timings:
Total time for T0               ...    11.260 sec
Total time for Iterative (T)    ...     0.000 sec
Total time of overall (T)       ...    14.510 sec

Triples List generation         ...     0.000 sec
TNO generation                  ...     0.373 sec
Pair density generation         ...     0.001 sec
Look up tables                  ...     0.000 sec
Generating 3-index integrals    ...     6.681 sec
  Make 4-ind.int. from 3-ind.int...     2.037 sec
  Projecting amplitudes (D + S) ...     0.356 sec
  Downprojecting integrals      ...     0.000 sec
  Energy contr. (sum over a,b,c)...     0.135 sec
Fitting ET(->0)                 ...     0.000 sec

Everything after 3-index        ...     4.203 sec

Timing details:
 TNO integrals                  ...     8.527 sec
   Reading 3-index integrals    ...     0.044 sec
   Sorting integrals            ...     0.336 sec
       Sorting integrals 1      ...     0.000 sec
       Sorting integrals 2      ...     0.116 sec
       Sorting integrals 3      ...     0.021 sec
       Sorting integrals 4      ...     0.000 sec
       Sorting integrals 5      ...     0.003 sec
       Sorting integrals 6      ...     0.195 sec
   Calculating local VM**-1/2   ...     0.050 sec
   Orthogonal. integrals        ...     0.113 sec
   Multipl. 3-index integrals   ...     7.984 sec
   All concerning IRIab (w/TNO) ...     1.596 sec

 Calculate W0/W1                ...     1.670 sec
 W 3-ext contribution           ...     1.343 sec
 W 3-int contribution           ...     0.169 sec
 Sorting W                      ...     0.136 sec

 V exchange contribution        ...     0.053 sec

 Timings for Triples without generation
     of 3-index integrals       ...     4.203 sec
       0 weak pairs             ...     4.203 sec
       1 weak pair              ...     0.000 sec
       2 weak pairs             ...     0.000 sec
       3 weak pairs             ...     0.000 sec
  Extra time for extrapolation  ...     0.000 sec

Number of Triples   (0, 1, 2, 3 weak pairs; overall):    156       0       0       0  (   156)
Number of Atoms     (0, 1, 2, 3 weak pairs; overall):    7.0     0.0     0.0     0.0  (     7)
Number of PAOs      (0, 1, 2, 3 weak pairs; overall):  230.0     0.0     0.0     0.0  (   230)
Number of AuxFcns   (0, 1, 2, 3 weak pairs; overall):  440.3     0.0     0.0     0.0  (   502)
Number of TNOs      (0, 1, 2, 3 weak pairs         ):   98.4     0.0     0.0     0.0
Aver. Number of NTNO, Atoms, PAOs, AuxFcns / Triples:    156    98.4     7.0   230.0   440.3

Triples Correction (T)                     ...     -0.023830904
Final correlation energy                   ...     -0.620579151
E(CCSD)                                    ...   -153.573056775
E(CCSD(T))                                 ...   -153.596887680


Maximum memory used throughout the entire calculation: 517.1 MB


------------------------------------------------------------------------------- 
                                     TIMINGS                                   
------------------------------------------------------------------------------- 


Total execution time                   ...       41.831 sec

Localization of occupied MO's          ...        0.319 sec (  0.8%)
Fock Matrix Formation                  ...        1.135 sec (  2.7%)
Global overlap, Fock, MKN matrices     ...        0.097 sec (  0.2%)
Differential overlap integrals         ...        0.022 sec (  0.1%)
Organizing maps                        ...        0.006 sec (  0.0%)
RI 3-index integral generations        ...        1.255 sec (  3.0%)
RI-PNO integral transformation         ...        8.253 sec ( 19.7%)
Initial Guess                          ...        0.539 sec (  1.3%)
DIIS Solver                            ...        0.047 sec (  0.1%)
State Vector Update                    ...        0.002 sec (  0.0%)
Sigma-vector construction              ...       15.509 sec ( 37.1%)
  <D|H|D>(0-ext)                       ...        0.131 sec (  0.8% of sigma)
  <D|H|D>(2-ext Fock)                  ...        0.003 sec (  0.0% of sigma)
  <D|H|D>(2-ext)                       ...        1.156 sec (  7.5% of sigma)
  <D|H|D>(4-ext)                       ...        3.680 sec ( 23.7% of sigma)
  <D|H|D>(4-ext-corr)                  ...        9.407 sec ( 60.7% of sigma)
  CCSD doubles correction              ...        0.006 sec (  0.0% of sigma)
  <S|H|S>                              ...        0.068 sec (  0.4% of sigma)
  <S|H|D>(1-ext)                       ...        0.023 sec (  0.1% of sigma)
  <S|H|D>(3-ext)                       ...        0.022 sec (  0.1% of sigma)
  Fock-dressing                        ...        0.458 sec (  3.0% of sigma)
  Singles amplitudes                   ...        0.074 sec (  0.5% of sigma)
  (ik|jl)-dressing                     ...        0.116 sec (  0.7% of sigma)
  (ij|ab),(ia|jb)-dressing             ...        0.278 sec (  1.8% of sigma)
  Pair energies                        ...        0.002 sec (  0.0% of sigma)
Total Time for computing (T)           ...       14.511 sec ( 34.7% of ALL)


-------------------------   --------------------
FINAL SINGLE POINT ENERGY      -153.596887679604
-------------------------   --------------------


                            ***************************************
                            *     ORCA property calculations      *
                            ***************************************

                                    ---------------------
                                    Active property flags
                                    ---------------------
   (+) Dipole Moment


------------------------------------------------------------------------------
                       ORCA ELECTRIC PROPERTIES CALCULATION
------------------------------------------------------------------------------

Dipole Moment Calculation                       ... on
Quadrupole Moment Calculation                   ... off
Polarizability Calculation                      ... off
GBWName                                         ... acetaldehyde_DLPNO-CCSDT_aug-cc-pVTZ_SPE.gbw
Electron density file                           ... acetaldehyde_DLPNO-CCSDT_aug-cc-pVTZ_SPE.scfp
The origin for moment calculation is the CENTER OF MASS  = ( 0.437015,  0.635640 -0.398755)

-------------
DIPOLE MOMENT
-------------
                                X             Y             Z
Electronic contribution:     -2.86375       1.31789      -0.06997
Nuclear contribution   :      3.75271      -2.24291       0.28877
                        -----------------------------------------
Total Dipole Moment    :      0.88896      -0.92502       0.21881
                        -----------------------------------------
Magnitude (a.u.)       :      1.30146
Magnitude (Debye)      :      3.30804



--------------------
Rotational spectrum 
--------------------
 
Rotational constants in cm-1:     1.901356     0.338825     0.303642 
Rotational constants in MHz : 57001.220388 10157.716774  9102.948745 

 Dipole components along the rotational axes: 
x,y,z [a.u.] :     1.186972    -0.533749     0.000022 
x,y,z [Debye]:     3.017042    -1.356682     0.000056 

 

Timings for individual modules:

Sum of individual times         ...       53.620 sec (=   0.894 min)
GTO integral calculation        ...        0.593 sec (=   0.010 min)   1.1 %
SCF iterations                  ...       10.928 sec (=   0.182 min)  20.4 %
MDCI module                     ...       42.098 sec (=   0.702 min)  78.5 %
                             ****ORCA TERMINATED NORMALLY****
TOTAL RUN TIME: 0 days 0 hours 0 minutes 53 seconds 924 msec
