
                                 *****************
                                 * O   R   C   A *
                                 *****************

           --- An Ab Initio, DFT and Semiempirical electronic structure package ---

                  #######################################################
                  #                        -***-                        #
                  #          Department of theory and spectroscopy      #
                  #               Directorship: Frank Neese             #
                  #        Max Planck Institute fuer Kohlenforschung    #
                  #                Kaiser Wilhelm Platz 1               #
                  #                 D-45470 Muelheim/Ruhr               #
                  #                      Germany                        #
                  #                                                     #
                  #                  All rights reserved                #
                  #                        -***-                        #
                  #######################################################


                         Program Version 4.2.1 -  RELEASE  -


 With contributions from (in alphabetic order):
   Daniel Aravena         : Magnetic Suceptibility
   Michael Atanasov       : Ab Initio Ligand Field Theory (pilot matlab implementation)
   Alexander A. Auer      : GIAO ZORA, VPT2
   Ute Becker             : Parallelization
   Giovanni Bistoni       : ED, misc. LED, open-shell LED, HFLD
   Martin Brehm           : Molecular dynamics
   Dmytro Bykov           : SCF Hessian
   Vijay G. Chilkuri      : MRCI spin determinant printing, contributions to CSF-ICE
   Dipayan Datta          : RHF DLPNO-CCSD density
   Achintya Kumar Dutta   : EOM-CC, STEOM-CC
   Dmitry Ganyushin       : Spin-Orbit,Spin-Spin,Magnetic field MRCI
   Miquel Garcia          : C-PCM Hessian, Gaussian charge scheme
   Yang Guo               : DLPNO-NEVPT2, CIM, IAO-localization
   Andreas Hansen         : Spin unrestricted coupled pair/coupled cluster methods
   Benjamin Helmich-Paris : CASSCF linear response (MC-RPA)
   Lee Huntington         : MR-EOM, pCC
   Robert Izsak           : Overlap fitted RIJCOSX, COSX-SCS-MP3, EOM
   Christian Kollmar      : KDIIS, OOCD, Brueckner-CCSD(T), CCSD density
   Simone Kossmann        : Meta GGA functionals, TD-DFT gradient, OOMP2, MP2 Hessian
   Martin Krupicka        : AUTO-CI
   Lucas Lang             : DCDCAS
   Dagmar Lenk            : GEPOL surface, SMD
   Dimitrios Liakos       : Extrapolation schemes; Compound Job, initial MDCI parallelization
   Dimitrios Manganas     : Further ROCIS development; embedding schemes
   Dimitrios Pantazis     : SARC Basis sets
   Taras Petrenko         : DFT Hessian,TD-DFT gradient, ASA, ECA, R-Raman, ABS, FL, XAS/XES, NRVS
   Peter Pinski           : DLPNO-MP2, DLPNO-MP2 Gradient
   Christoph Reimann      : Effective Core Potentials
   Marius Retegan         : Local ZFS, SOC
   Christoph Riplinger    : Optimizer, TS searches, QM/MM, DLPNO-CCSD(T), (RO)-DLPNO pert. Triples
   Tobias Risthaus        : Range-separated hybrids, TD-DFT gradient, RPA, STAB
   Michael Roemelt        : Original ROCIS implementation
   Masaaki Saitow         : Open-shell DLPNO-CCSD energy and density
   Barbara Sandhoefer     : DKH picture change effects
   Avijit Sen             : IP-ROCIS
   Kantharuban Sivalingam : CASSCF convergence, NEVPT2, FIC-MRCI
   Bernardo de Souza      : ESD, SOC TD-DFT
   Georgi Stoychev        : AutoAux, RI-MP2 NMR
   Willem Van den Heuvel  : Paramagnetic NMR
   Boris Wezisla          : Elementary symmetry handling
   Frank Wennmohs         : Technical directorship


 We gratefully acknowledge several colleagues who have allowed us to
 interface, adapt or use parts of their codes:
   Stefan Grimme, W. Hujo, H. Kruse,             : VdW corrections, initial TS optimization,
                  C. Bannwarth                     DFT functionals, gCP, sTDA/sTD-DF
   Ed Valeev, F. Pavosevic, A. Kumar             : LibInt (2-el integral package), F12 methods
   Garnet Chan, S. Sharma, J. Yang, R. Olivares  : DMRG
   Ulf Ekstrom                                   : XCFun DFT Library
   Mihaly Kallay                                 : mrcc  (arbitrary order and MRCC methods)
   Andreas Klamt, Michael Diedenhofen            : otool_cosmo (COSMO solvation model)
   Jiri Pittner, Ondrej Demel                    : Mk-CCSD
   Frank Weinhold                                : gennbo (NPA and NBO analysis)
   Christopher J. Cramer and Donald G. Truhlar   : smd solvation model
   Lars Goerigk                                  : TD-DFT with DH, B97 family of functionals
   V. Asgeirsson, H. Jonsson                     : NEB implementation
   FAccTs GmbH                                   : IRC, NEB, NEB-TS, Multilevel, MM, QM/MM, CI optimization
   S Lehtola, MJT Oliveira, MAL Marques          : LibXC Library


 Your calculation uses the libint2 library for the computation of 2-el integrals
 For citations please refer to: http://libint.valeyev.net

 Your ORCA version has been built with support for libXC version: 4.2.3
 For citations please refer to: https://tddft.org/programs/libxc/

 This ORCA versions uses:
   CBLAS   interface :  Fast vector & matrix operations
   LAPACKE interface :  Fast linear algebra routines
   SCALAPACK package :  Parallel linear algebra routines




***************************************
The coordinates will be read from file: water_b3lyp_cc-pVTZ.xyz
***************************************


----- Orbital basis set information -----
Your calculation utilizes the basis: aug-cc-pVTZ 
    H, B-Ne : Obtained from the ccRepo (grant-hill.group.shef.ac.uk/ccrepo) Feb. 2017
              R. A. Kendall, T. H. Dunning, Jr., R. J. Harrison, J. Chem. Phys. 96, 6796 (1992)
         He : Obtained from the ccRepo (grant-hill.group.shef.ac.uk/ccrepo) Feb. 2017
              D. E. Woon, T. H. Dunning, Jr., J. Chem. Phys. 100, 2975 (1994)
  Li-Be, Na : Obtained from the ccRepo (grant-hill.group.shef.ac.uk/ccrepo) Feb. 2017
              B. P. Prascher, D. E. Woon, K. A. Peterson, T. H. Dunning, Jr., A. K. Wilson, Theor. Chem. Acc. 128, 69 (2011)
         Mg : Obtained from the Peterson Research Group Website (tyr0.chem.wsu.edu/~kipeters) Feb. 2017
              B. P. Prascher, D. E. Woon, K. A. Peterson, T. H. Dunning, Jr., A. K. Wilson, Theor. Chem. Acc. 128, 69 (2011)
      Al-Ar : Obtained from the ccRepo (grant-hill.group.shef.ac.uk/ccrepo) Feb. 2017
              D. E. Woon, T. H. Dunning, Jr., J. Chem. Phys. 98, 1358 (1993)
      Sc-Zn : Obtained from the ccRepo (grant-hill.group.shef.ac.uk/ccrepo) Feb. 2017
              N. B. Balabanov, K. A. Peterson, J. Chem. Phys. 123, 064107 (2005)
              N. B. Balabanov, K. A. Peterson, J. Chem. Phys. 125, 074110 (2006)
      Ga-Kr : Obtained from the ccRepo (grant-hill.group.shef.ac.uk/ccrepo) Feb. 2017
              A. K. Wilson, D. E. Woon, K. A. Peterson, T. H. Dunning, Jr., J. Chem. Phys. 110, 7667 (1999)
     Ag, Au : Obtained from the Peterson Research Group Website (tyr0.chem.wsu.edu/~kipeters) Feb. 2017
              K. A. Peterson, C. Puzzarini, Theor. Chem. Acc. 114, 283 (2005)

================================================================================
                                        WARNINGS
                       Please study these warnings very carefully!
================================================================================


WARNING: The frozen-core approximation for MP2-gradient calculations is turned on by default.

WARNING: Geometry Optimization
  ===> : Switching off AutoStart
         For restart on a previous wavefunction, please use MOREAD

WARNING: Post HF methods need fully converged wavefunctions
  ===> : Setting SCFConvForced true
         You can overwrite this default with %scf ConvForced false 


INFO   : the flag for use of LIBINT has been found!

================================================================================
                                       INPUT FILE
================================================================================
NAME = water_MP2_aug-cc-pVTZ_OPT.inp
|  1> # Water geom opt with B3LYP/cc-pVTZ
|  2> 
|  3> ! MP2 aug-cc-pVTZ TightSCF Opt PAL4
|  4> 
|  5> * xyzfile 0 1 water_b3lyp_cc-pVTZ.xyz
|  6> 
|  7>                          ****END OF INPUT****
================================================================================

                       *****************************
                       * Geometry Optimization Run *
                       *****************************

Geometry optimization settings:
Update method            Update   .... BFGS
Choice of coordinates    CoordSys .... Z-matrix Internals
Initial Hessian          InHess   .... Almoef's Model

Convergence Tolerances:
Energy Change            TolE     ....  5.0000e-06 Eh
Max. Gradient            TolMAXG  ....  3.0000e-04 Eh/bohr
RMS Gradient             TolRMSG  ....  1.0000e-04 Eh/bohr
Max. Displacement        TolMAXD  ....  4.0000e-03 bohr
RMS Displacement         TolRMSD  ....  2.0000e-03 bohr
Strict Convergence                ....  False
------------------------------------------------------------------------------
                        ORCA OPTIMIZATION COORDINATE SETUP
------------------------------------------------------------------------------

The optimization will be done in new redundant internal coordinates
Making redundant internal coordinates   ...  (new redundants) done
Evaluating the initial hessian          ...  (Almloef) done
Evaluating the coordinates              ...  done
Calculating the B-matrix                .... done
Calculating the G-matrix                .... done
Diagonalizing the G-matrix              .... done
The first mode is                       ....    0
The number of degrees of freedom        ....    3

    -----------------------------------------------------------------
                    Redundant Internal Coordinates


    -----------------------------------------------------------------
         Definition                    Initial Value    Approx d2E/dq
    -----------------------------------------------------------------
      1. B(H   1,O   0)                  0.9616         0.516984   
      2. B(H   2,O   0)                  0.9615         0.517004   
      3. A(H   1,O   0,H   2)          104.5337         0.321232   
    -----------------------------------------------------------------

Number of atoms                         .... 3
Number of degrees of freedom            .... 3

         *************************************************************
         *                GEOMETRY OPTIMIZATION CYCLE   1            *
         *************************************************************
---------------------------------
CARTESIAN COORDINATES (ANGSTROEM)
---------------------------------
  O     -0.008713   -0.012335    0.000000
  H     -0.289892    0.907195    0.000000
  H      0.951944    0.029090    0.000000

----------------------------
CARTESIAN COORDINATES (A.U.)
----------------------------
  NO LB      ZA    FRAG     MASS         X           Y           Z
   0 O     8.0000    0    15.999   -0.016465   -0.023311    0.000000
   1 H     1.0000    0     1.008   -0.547816    1.714351    0.000000
   2 H     1.0000    0     1.008    1.798914    0.054972    0.000000

--------------------------------
INTERNAL COORDINATES (ANGSTROEM)
--------------------------------
 O      0   0   0     0.000000000000     0.00000000     0.00000000
 H      1   0   0     0.961560626585     0.00000000     0.00000000
 H      1   2   0     0.961549844882   104.53368001     0.00000000

---------------------------
INTERNAL COORDINATES (A.U.)
---------------------------
 O      0   0   0     0.000000000000     0.00000000     0.00000000
 H      1   0   0     1.817086245408     0.00000000     0.00000000
 H      1   2   0     1.817065870941   104.53368001     0.00000000

---------------------
BASIS SET INFORMATION
---------------------
There are 2 groups of distinct atoms

 Group   1 Type O   : 19s6p3d2f contracted to 5s4p3d2f pattern {88111/3111/111/11}
 Group   2 Type H   : 6s3p2d contracted to 4s3p2d pattern {3111/111/11}

Atom   0O    basis set group =>   1
Atom   1H    basis set group =>   2
Atom   2H    basis set group =>   2


           ************************************************************
           *        Program running with 4 parallel MPI-processes     *
           *              working on a common directory               *
           ************************************************************
------------------------------------------------------------------------------
                           ORCA GTO INTEGRAL CALCULATION
------------------------------------------------------------------------------

                         BASIS SET STATISTICS AND STARTUP INFO

 # of primitive gaussian shells          ...   52
 # of primitive gaussian functions       ...  116
 # of contracted shells                  ...   32
 # of contracted basis functions         ...   92
 Highest angular momentum                ...    3
 Maximum contraction depth               ...    8
 Integral package used                   ... LIBINT
 Integral threshhold            Thresh   ...  2.500e-11
 Primitive cut-off              TCut     ...  2.500e-12


------------------------------ INTEGRAL EVALUATION ----------------------------


 * One electron integrals 
 Pre-screening matrix                    ... done
 Shell pair data                         ... done (   0.000 sec)



           ************************************************************
           *        Program running with 4 parallel MPI-processes     *
           *              working on a common directory               *
           ************************************************************
-------------------------------------------------------------------------------
                                 ORCA SCF
-------------------------------------------------------------------------------

------------
SCF SETTINGS
------------
Hamiltonian:
 Ab initio Hamiltonian  Method          .... Hartree-Fock(GTOs)


General Settings:
 Integral files         IntName         .... water_MP2_aug-cc-pVTZ_OPT
 Hartree-Fock type      HFTyp           .... RHF
 Total Charge           Charge          ....    0
 Multiplicity           Mult            ....    1
 Number of Electrons    NEL             ....   10
 Basis Dimension        Dim             ....   92
 Nuclear Repulsion      ENuc            ....      9.1532853003 Eh

Convergence Acceleration:
 DIIS                   CNVDIIS         .... on
   Start iteration      DIISMaxIt       ....    12
   Startup error        DIISStart       ....  0.200000
   # of expansion vecs  DIISMaxEq       ....     5
   Bias factor          DIISBfac        ....   1.050
   Max. coefficient     DIISMaxC        ....  10.000
 Newton-Raphson         CNVNR           .... off
 SOSCF                  CNVSOSCF        .... on
   Start iteration      SOSCFMaxIt      ....   150
   Startup grad/error   SOSCFStart      ....  0.003300
 Level Shifting         CNVShift        .... on
   Level shift para.    LevelShift      ....    0.2500
   Turn off err/grad.   ShiftErr        ....    0.0010
 Zerner damping         CNVZerner       .... off
 Static damping         CNVDamp         .... on
   Fraction old density DampFac         ....    0.7000
   Max. Damping (<1)    DampMax         ....    0.9800
   Min. Damping (>=0)   DampMin         ....    0.0000
   Turn off err/grad.   DampErr         ....    0.1000
 Fernandez-Rico         CNVRico         .... off

SCF Procedure:
 Maximum # iterations   MaxIter         ....   125
 SCF integral mode      SCFMode         .... Direct
   Integral package                     .... LIBINT
 Reset frequency        DirectResetFreq ....    20
 Integral Threshold     Thresh          ....  2.500e-11 Eh
 Primitive CutOff       TCut            ....  2.500e-12 Eh

Convergence Tolerance:
 Convergence Check Mode ConvCheckMode   .... Total+1el-Energy
 Convergence forced     ConvForced      .... 1
 Energy Change          TolE            ....  1.000e-08 Eh
 1-El. energy change                    ....  1.000e-05 Eh
 Orbital Gradient       TolG            ....  1.000e-05
 Orbital Rotation angle TolX            ....  1.000e-05
 DIIS Error             TolErr          ....  5.000e-07


Diagonalization of the overlap matrix:
Smallest eigenvalue                        ... 3.883e-04
Time for diagonalization                   ...    0.002 sec
Threshold for overlap eigenvalues          ... 1.000e-08
Number of eigenvalues below threshold      ... 0
Time for construction of square roots      ...    0.001 sec
Total time needed                          ...    0.002 sec

-------------------
DFT GRID GENERATION
-------------------

General Integration Accuracy     IntAcc      ...  4.340
Radial Grid Type                 RadialGrid  ... Gauss-Chebyshev
Angular Grid (max. acc.)         AngularGrid ... Lebedev-110
Angular grid pruning method      GridPruning ... 3 (G Style)
Weight generation scheme         WeightScheme... Becke
Basis function cutoff            BFCut       ...    1.0000e-11
Integration weight cutoff        WCut        ...    1.0000e-14
Grids for H and He will be reduced by one unit

# of grid points (after initial pruning)     ...   3304 (   0.0 sec)
# of grid points (after weights+screening)   ...   3267 (   0.0 sec)
nearest neighbour list constructed           ...    0.0 sec
Grid point re-assignment to atoms done       ...    0.0 sec
Grid point division into batches done        ...    0.0 sec
Reduced shell lists constructed in    0.0 sec

Total number of grid points                  ...     3267
Total number of batches                      ...       53
Average number of points per batch           ...       61
Average number of grid points per atom       ...     1089
Average number of shells per batch           ...    29.33 (91.67%)
Average number of basis functions per batch  ...    84.40 (91.74%)
Average number of large shells per batch     ...    29.00 (98.86%)
Average number of large basis fcns per batch ...    83.27 (98.66%)
Maximum spatial batch extension              ...  17.09, 14.29, 25.65 au
Average spatial batch extension              ...   1.55,  1.30,  1.87 au

Time for grid setup =    0.007 sec

------------------------------
INITIAL GUESS: MODEL POTENTIAL
------------------------------
Loading Hartree-Fock densities                     ... done
Calculating cut-offs                               ... done
Setting up the integral package                    ... done
Initializing the effective Hamiltonian             ... done
Starting the Coulomb interaction                   ... done (   0.0 sec)
Reading the grid                                   ... done
Mapping shells                                     ... done
Starting the XC term evaluation                    ... done (   0.0 sec)
Transforming the Hamiltonian                       ... done (   0.0 sec)
Diagonalizing the Hamiltonian                      ... done (   0.0 sec)
Back transforming the eigenvectors                 ... done (   0.0 sec)
Now organizing SCF variables                       ... done
                      ------------------
                      INITIAL GUESS DONE (   0.1 sec)
                      ------------------
--------------
SCF ITERATIONS
--------------
ITER       Energy         Delta-E        Max-DP      RMS-DP      [F,P]     Damp
               ***  Starting incremental Fock matrix formation  ***
  0    -75.9586137591   0.000000000000 0.02768939  0.00101934  0.3819168 0.7000
  1    -75.9992589288  -0.040645169679 0.01799103  0.00068371  0.2233220 0.7000
                               ***Turning on DIIS***
  2    -76.0202952440  -0.021036315255 0.01152208  0.00037371  0.1185187 0.7000
  3    -76.1768871771  -0.156591933082 0.02968785  0.00066588  0.0848848 0.0000
  4    -76.0353972865   0.141489890625 0.00474087  0.00012539  0.0140943 0.0000
                      *** Initiating the SOSCF procedure ***
                           *** Shutting down DIIS ***
                      *** Re-Reading the Fockian *** 
                      *** Removing any level shift *** 
ITER      Energy       Delta-E        Grad      Rot      Max-DP    RMS-DP
  5    -76.05984681  -0.0244495276  0.001255  0.001255  0.001498  0.000053
               *** Restarting incremental Fock matrix formation ***
  6    -76.06028882  -0.0004420042  0.000519  0.000769  0.001040  0.000027
  7    -76.06029405  -0.0000052319  0.000204  0.000493  0.000848  0.000022
  8    -76.06029525  -0.0000012044  0.000093  0.000051  0.000150  0.000004
  9    -76.06029530  -0.0000000488  0.000036  0.000025  0.000021  0.000001
 10    -76.06029531  -0.0000000095  0.000005  0.000007  0.000007  0.000000
                 **** Energy Check signals convergence ****
              ***Rediagonalizing the Fockian in SOSCF/NRSCF***

               *****************************************************
               *                     SUCCESS                       *
               *           SCF CONVERGED AFTER  11 CYCLES          *
               *****************************************************


----------------
TOTAL SCF ENERGY
----------------

Total Energy       :          -76.06029531 Eh           -2069.70586 eV

Components:
Nuclear Repulsion  :            9.15328530 Eh             249.07356 eV
Electronic Energy  :          -85.21358061 Eh           -2318.77941 eV
One Electron Energy:         -122.96933587 Eh           -3346.16574 eV
Two Electron Energy:           37.75575525 Eh            1027.38633 eV

Virial components:
Potential Energy   :         -152.00192556 Eh           -4136.18267 eV
Kinetic Energy     :           75.94163024 Eh            2066.47682 eV
Virial Ratio       :            2.00156258


---------------
SCF CONVERGENCE
---------------

  Last Energy change         ...   -3.2722e-10  Tolerance :   1.0000e-08
  Last MAX-Density change    ...    2.7478e-06  Tolerance :   1.0000e-07
  Last RMS-Density change    ...    9.6608e-08  Tolerance :   5.0000e-09
  Last Orbital Gradient      ...    1.2475e-06  Tolerance :   1.0000e-05
  Last Orbital Rotation      ...    2.8330e-06  Tolerance :   1.0000e-05

             **** THE GBW FILE WAS UPDATED (water_MP2_aug-cc-pVTZ_OPT.gbw) ****
             **** DENSITY FILE WAS UPDATED (water_MP2_aug-cc-pVTZ_OPT.scfp) ****
             **** ENERGY FILE WAS UPDATED (water_MP2_aug-cc-pVTZ_OPT.en.tmp) ****
             **** THE GBW FILE WAS UPDATED (water_MP2_aug-cc-pVTZ_OPT.gbw) ****
             **** DENSITY FILE WAS UPDATED (water_MP2_aug-cc-pVTZ_OPT.scfp) ****
----------------
ORBITAL ENERGIES
----------------

  NO   OCC          E(Eh)            E(eV) 
   0   2.0000     -20.567948      -559.6823 
   1   2.0000      -1.351365       -36.7725 
   2   2.0000      -0.715519       -19.4703 
   3   2.0000      -0.584082       -15.8937 
   4   2.0000      -0.510000       -13.8778 
   5   0.0000       0.029391         0.7998 
   6   0.0000       0.047666         1.2971 
   7   0.0000       0.135949         3.6994 
   8   0.0000       0.158724         4.3191 
   9   0.0000       0.175062         4.7637 
  10   0.0000       0.182979         4.9791 
  11   0.0000       0.227240         6.1835 
  12   0.0000       0.244851         6.6627 
  13   0.0000       0.265231         7.2173 
  14   0.0000       0.300433         8.1752 
  15   0.0000       0.310392         8.4462 
  16   0.0000       0.365702         9.9512 
  17   0.0000       0.437284        11.8991 
  18   0.0000       0.466005        12.6806 
  19   0.0000       0.599440        16.3116 
  20   0.0000       0.658000        17.9051 
  21   0.0000       0.708264        19.2728 
  22   0.0000       0.722311        19.6551 
  23   0.0000       0.731691        19.9103 
  24   0.0000       0.830030        22.5863 
  25   0.0000       0.845922        23.0187 
  26   0.0000       0.892053        24.2740 
  27   0.0000       0.912411        24.8280 
  28   0.0000       0.918861        25.0035 
  29   0.0000       0.922132        25.0925 
  30   0.0000       0.930394        25.3173 
  31   0.0000       0.962224        26.1835 
  32   0.0000       1.020801        27.7774 
  33   0.0000       1.043096        28.3841 
  34   0.0000       1.082650        29.4604 
  35   0.0000       1.108718        30.1697 
  36   0.0000       1.175677        31.9918 
  37   0.0000       1.181100        32.1394 
  38   0.0000       1.261013        34.3139 
  39   0.0000       1.510155        41.0934 
  40   0.0000       1.538092        41.8536 
  41   0.0000       1.583503        43.0893 
  42   0.0000       1.804757        49.1099 
  43   0.0000       1.816389        49.4264 
  44   0.0000       1.984883        54.0114 
  45   0.0000       2.116293        57.5873 
  46   0.0000       2.262230        61.5584 
  47   0.0000       2.315680        63.0129 
  48   0.0000       2.326277        63.3012 
  49   0.0000       2.417918        65.7949 
  50   0.0000       2.419826        65.8468 
  51   0.0000       2.442648        66.4678 
  52   0.0000       2.478660        67.4478 
  53   0.0000       2.678454        72.8844 
  54   0.0000       2.698485        73.4295 
  55   0.0000       2.769274        75.3558 
  56   0.0000       2.819182        76.7138 
  57   0.0000       2.883549        78.4654 
  58   0.0000       3.650376        99.3318 
  59   0.0000       3.743442       101.8642 
  60   0.0000       4.015416       109.2650 
  61   0.0000       4.082545       111.0917 
  62   0.0000       4.168470       113.4298 
  63   0.0000       4.244113       115.4882 
  64   0.0000       4.291789       116.7855 
  65   0.0000       4.377035       119.1052 
  66   0.0000       4.377389       119.1148 
  67   0.0000       4.403533       119.8262 
  68   0.0000       4.514209       122.8379 
  69   0.0000       4.721878       128.4888 
  70   0.0000       4.838344       131.6580 
  71   0.0000       5.142250       139.9277 
  72   0.0000       5.147896       140.0814 
  73   0.0000       5.253252       142.9483 
  74   0.0000       5.320778       144.7857 
  75   0.0000       5.517590       150.1413 
  76   0.0000       5.666152       154.1838 
  77   0.0000       6.172377       167.9589 
  78   0.0000       6.515024       177.2828 
  79   0.0000       6.708670       182.5522 
  80   0.0000       6.891424       187.5252 
  81   0.0000       7.131526       194.0587 
  82   0.0000       7.250346       197.2920 
  83   0.0000       7.305144       198.7831 
  84   0.0000       7.309365       198.8979 
  85   0.0000       7.324365       199.3061 
  86   0.0000       7.354988       200.1394 
  87   0.0000       7.530349       204.9112 
  88   0.0000       7.901131       215.0007 
  89   0.0000       7.916877       215.4292 
  90   0.0000       8.793984       239.2965 
  91   0.0000      15.700585       427.2346 

                    ********************************
                    * MULLIKEN POPULATION ANALYSIS *
                    ********************************

-----------------------
MULLIKEN ATOMIC CHARGES
-----------------------
   0 O :   -0.445085
   1 H :    0.222548
   2 H :    0.222538
Sum of atomic charges:    0.0000000

--------------------------------
MULLIKEN REDUCED ORBITAL CHARGES
--------------------------------
  0 O s       :     3.871541  s :     3.871541
      pz      :     1.876261  p :     4.554550
      px      :     1.295264
      py      :     1.383025
      dz2     :     0.002172  d :     0.017716
      dxz     :     0.000710
      dyz     :     0.001420
      dx2y2   :     0.011595
      dxy     :     0.001819
      f0      :     0.000174  f :     0.001278
      f+1     :     0.000517
      f-1     :     0.000409
      f+2     :     0.000001
      f-2     :     0.000010
      f+3     :     0.000058
      f-3     :     0.000109
  1 H s       :     0.660178  s :     0.660178
      pz      :     0.050122  p :     0.098774
      px      :     0.029955
      py      :     0.018696
      dz2     :     0.000145  d :     0.018500
      dxz     :     0.001136
      dyz     :     0.009452
      dx2y2   :     0.004745
      dxy     :     0.003022
  2 H s       :     0.660184  s :     0.660184
      pz      :     0.050124  p :     0.098777
      px      :     0.017546
      py      :     0.031106
      dz2     :     0.000145  d :     0.018501
      dxz     :     0.010587
      dyz     :     0.000002
      dx2y2   :     0.001011
      dxy     :     0.006757


                     *******************************
                     * LOEWDIN POPULATION ANALYSIS *
                     *******************************

----------------------
LOEWDIN ATOMIC CHARGES
----------------------
   0 O :    1.023889
   1 H :   -0.511933
   2 H :   -0.511956

-------------------------------
LOEWDIN REDUCED ORBITAL CHARGES
-------------------------------
  0 O s       :     3.011048  s :     3.011048
      pz      :     1.425495  p :     3.880127
      px      :     1.198572
      py      :     1.256060
      dz2     :     0.012073  d :     0.070234
      dxz     :     0.000222
      dyz     :     0.000445
      dx2y2   :     0.045888
      dxy     :     0.011605
      f0      :     0.000152  f :     0.014702
      f+1     :     0.002817
      f-1     :     0.002160
      f+2     :     0.000006
      f-2     :     0.000046
      f+3     :     0.006287
      f-3     :     0.003235
  1 H s       :     0.589327  s :     0.589327
      pz      :     0.165724  p :     0.555334
      px      :     0.139654
      py      :     0.249955
      dz2     :     0.033161  d :     0.367272
      dxz     :     0.009984
      dyz     :     0.111105
      dx2y2   :     0.110713
      dxy     :     0.102308
  2 H s       :     0.589332  s :     0.589332
      pz      :     0.165729  p :     0.555348
      px      :     0.247580
      py      :     0.142039
      dz2     :     0.033161  d :     0.367276
      dxz     :     0.120803
      dyz     :     0.000289
      dx2y2   :     0.083813
      dxy     :     0.129210


                      *****************************
                      * MAYER POPULATION ANALYSIS *
                      *****************************

  NA   - Mulliken gross atomic population
  ZA   - Total nuclear charge
  QA   - Mulliken gross atomic charge
  VA   - Mayer's total valence
  BVA  - Mayer's bonded valence
  FA   - Mayer's free valence

  ATOM       NA         ZA         QA         VA         BVA        FA
  0 O      8.4451     8.0000    -0.4451     1.9941     1.9941    -0.0000
  1 H      0.7775     1.0000     0.2225     1.0319     1.0319     0.0000
  2 H      0.7775     1.0000     0.2225     1.0319     1.0319     0.0000

  Mayer bond orders larger than 0.100000
B(  0-O ,  1-H ) :   0.9970 B(  0-O ,  2-H ) :   0.9970 

-------
TIMINGS
-------

Total SCF time: 0 days 0 hours 0 min 2 sec 

Total time                  ....       2.306 sec
Sum of individual times     ....       2.141 sec  ( 92.9%)

Fock matrix formation       ....       2.033 sec  ( 88.2%)
Diagonalization             ....       0.005 sec  (  0.2%)
Density matrix formation    ....       0.001 sec  (  0.0%)
Population analysis         ....       0.001 sec  (  0.0%)
Initial guess               ....       0.089 sec  (  3.9%)
Orbital Transformation      ....       0.000 sec  (  0.0%)
Orbital Orthonormalization  ....       0.000 sec  (  0.0%)
DIIS solution               ....       0.002 sec  (  0.1%)
SOSCF solution              ....       0.003 sec  (  0.1%)


           ************************************************************
           *        Program running with 4 parallel MPI-processes     *
           *              working on a common directory               *
           ************************************************************

------------------------------------------------------------------------------
                                ORCA  MP2 
------------------------------------------------------------------------------

Freezing NCore=2 chemical core electrons
MP2 will be done in the AO integral direct mode
The Q1-step will be done using symmetric double matrices
Dimension of the basis                    ...   92
Memory devoted for MP2                    ...  256 MB   
Memory needed for all in one shot         ...    4 MB
Number of MOs that can be treated together...   84      
MP2 density construction                  ... relaxed
The MP2 gradient is requested => amplitudes will be stored on disk
Total number of MOs              ...    4
Number of MOs treated per batch  ...    1 
Number of batches necessary      ...    1 
OPERATORS   0/  0 PASS   0
-----------------------------------------------
 MP2 CORRELATION ENERGY   :     -0.268692508 Eh
-----------------------------------------------


---------------------
MP2 DENSITY FORMATION
---------------------

Completing the external part of the density      ... done
Storing the unrelaxed density                    ... done

Calculating G(D)                                 ... done
Completing the Lagrangian                        ... done
Solving the Z-vector equations                   ... 

------------------------------------------------------------------------------
                           ORCA CP-SCF CALCULATION
------------------------------------------------------------------------------

Input orbitals are from        ... water_MP2_aug-cc-pVTZ_OPT.gbw
Input Perturbation             ... water_MP2_aug-cc-pVTZ_OPT.pin.tmp
Wavefunction output            ... water_MP2_aug-cc-pVTZ_OPT.pout.tmp
Perturbation mode              ... Real perturbation (singlet)
Solver                         ... POPLE
Max. number of iterations      ... 128
Convergence tolerance          ... 1.000e-08
Integral handling              ... Direct
Number of perturbations        ... 1
Number of operators            ... 1
Orbital ranges used for CP-SCF:
 Operator 0:  Orbitals   0...  4  to   5... 91
Variables per vector in CP-SCF ... 435
Number of vectors sought       ... 1
     CP-SCF ITERATION   0: 
     CP-SCF ITERATION   1:      0.000130319787
     CP-SCF ITERATION   2:      0.000005096725
     CP-SCF ITERATION   3:      0.000000163394
     CP-SCF ITERATION   4:      0.000000005668
                                                 ... done
Finalizing the relaxed density                   ... done
Transforming P to the AO basis                   ... done
Storing the relaxed density                      ... done

------------------------------------
ENERGY WEIGHTED DENSITY FINALIZATION
------------------------------------

Gathering the parts of the W-matrix              ...                                                      done
Forming the Z-density                            ... done
Transforming Z to the AO basis                   ... done
Calculating G(Z)                                 ... done
Finalizing the W-matrix                          ...                                                      done
Transforming W to the AO basis and storing       ... done

                *********************************************
                * UNRELAXED MP2 DENSITY POPULATION ANALYSIS *
                *********************************************

------------------------------------------------------------------------------
                           ORCA POPULATION ANALYSIS
------------------------------------------------------------------------------
Input electron density              ... water_MP2_aug-cc-pVTZ_OPT.pmp2ur
BaseName (.gbw .S,...)              ... water_MP2_aug-cc-pVTZ_OPT

                    ********************************
                    * MULLIKEN POPULATION ANALYSIS *
                    ********************************

-----------------------
MULLIKEN ATOMIC CHARGES
-----------------------
   0 O :   -0.432787
   1 H :    0.216398
   2 H :    0.216389
Sum of atomic charges:    0.0000000

--------------------------------
MULLIKEN REDUCED ORBITAL CHARGES
--------------------------------
  0 O s       :     3.865315  s :     3.865315
      pz      :     1.860761  p :     4.516559
      px      :     1.284910
      py      :     1.370888
      dz2     :     0.007952  d :     0.045832
      dxz     :     0.006836
      dyz     :     0.007497
      dx2y2   :     0.015937
      dxy     :     0.007610
      f0      :     0.000693  f :     0.005081
      f+1     :     0.001027
      f-1     :     0.000936
      f+2     :     0.000548
      f-2     :     0.000553
      f+3     :     0.000659
      f-3     :     0.000665
  1 H s       :     0.665584  s :     0.665584
      pz      :     0.052102  p :     0.099506
      px      :     0.030815
      py      :     0.016590
      dz2     :     0.000166  d :     0.018512
      dxz     :     0.001272
      dyz     :     0.009457
      dx2y2   :     0.004653
      dxy     :     0.002964
  2 H s       :     0.665589  s :     0.665589
      pz      :     0.052104  p :     0.099509
      px      :     0.015107
      py      :     0.032299
      dz2     :     0.000166  d :     0.018513
      dxz     :     0.010594
      dyz     :     0.000135
      dx2y2   :     0.000889
      dxy     :     0.006729


                     *******************************
                     * LOEWDIN POPULATION ANALYSIS *
                     *******************************

----------------------
LOEWDIN ATOMIC CHARGES
----------------------
   0 O :    1.020733
   1 H :   -0.510355
   2 H :   -0.510378

-------------------------------
LOEWDIN REDUCED ORBITAL CHARGES
-------------------------------
  0 O s       :     3.008687  s :     3.008687
      pz      :     1.415224  p :     3.853340
      px      :     1.190688
      py      :     1.247428
      dz2     :     0.018234  d :     0.098264
      dxz     :     0.005635
      dyz     :     0.005920
      dx2y2   :     0.051838
      dxy     :     0.016638
      f0      :     0.000711  f :     0.018976
      f+1     :     0.003440
      f-1     :     0.002778
      f+2     :     0.000579
      f-2     :     0.000566
      f+3     :     0.007041
      f-3     :     0.003861
  1 H s       :     0.586859  s :     0.586859
      pz      :     0.166965  p :     0.558445
      px      :     0.139895
      py      :     0.251585
      dz2     :     0.033460  d :     0.365051
      dxz     :     0.010195
      dyz     :     0.109796
      dx2y2   :     0.110181
      dxy     :     0.101419
  2 H s       :     0.586863  s :     0.586863
      pz      :     0.166970  p :     0.558459
      px      :     0.249107
      py      :     0.142383
      dz2     :     0.033461  d :     0.365055
      dxz     :     0.119356
      dyz     :     0.000636
      dx2y2   :     0.084122
      dxy     :     0.127480


                      *****************************
                      * MAYER POPULATION ANALYSIS *
                      *****************************

  NA   - Mulliken gross atomic population
  ZA   - Total nuclear charge
  QA   - Mulliken gross atomic charge
  VA   - Mayer's total valence
  BVA  - Mayer's bonded valence
  FA   - Mayer's free valence

  ATOM       NA         ZA         QA         VA         BVA        FA
  0 O      8.4328     8.0000    -0.4328     2.2543     1.8841     0.3702
  1 H      0.7836     1.0000     0.2164     1.0425     0.9760     0.0665
  2 H      0.7836     1.0000     0.2164     1.0425     0.9760     0.0665

  Mayer bond orders larger than 0.100000
B(  0-O ,  1-H ) :   0.9420 B(  0-O ,  2-H ) :   0.9420 


                *******************************************
                * RELAXED MP2 DENSITY POPULATION ANALYSIS *
                *******************************************

------------------------------------------------------------------------------
                           ORCA POPULATION ANALYSIS
------------------------------------------------------------------------------
Input electron density              ... water_MP2_aug-cc-pVTZ_OPT.pmp2re
BaseName (.gbw .S,...)              ... water_MP2_aug-cc-pVTZ_OPT

                    ********************************
                    * MULLIKEN POPULATION ANALYSIS *
                    ********************************

-----------------------
MULLIKEN ATOMIC CHARGES
-----------------------
   0 O :   -0.429831
   1 H :    0.214920
   2 H :    0.214911
Sum of atomic charges:    0.0000000

--------------------------------
MULLIKEN REDUCED ORBITAL CHARGES
--------------------------------
  0 O s       :     3.865863  s :     3.865863
      pz      :     1.844598  p :     4.513775
      px      :     1.292780
      py      :     1.376397
      dz2     :     0.008091  d :     0.045057
      dxz     :     0.007025
      dyz     :     0.007877
      dx2y2   :     0.014390
      dxy     :     0.007674
      f0      :     0.000736  f :     0.005135
      f+1     :     0.001050
      f-1     :     0.000965
      f+2     :     0.000548
      f-2     :     0.000555
      f+3     :     0.000652
      f-3     :     0.000629
  1 H s       :     0.657945  s :     0.657945
      pz      :     0.061162  p :     0.111233
      px      :     0.032070
      py      :     0.018001
      dz2     :    -0.000027  d :     0.015902
      dxz     :     0.001278
      dyz     :     0.008164
      dx2y2   :     0.003871
      dxy     :     0.002615
  2 H s       :     0.657950  s :     0.657950
      pz      :     0.061163  p :     0.111235
      px      :     0.014214
      py      :     0.035858
      dz2     :    -0.000027  d :     0.015903
      dxz     :     0.009309
      dyz     :     0.000134
      dx2y2   :     0.000393
      dxy     :     0.006093


                     *******************************
                     * LOEWDIN POPULATION ANALYSIS *
                     *******************************

----------------------
LOEWDIN ATOMIC CHARGES
----------------------
   0 O :    1.028085
   1 H :   -0.514031
   2 H :   -0.514054

-------------------------------
LOEWDIN REDUCED ORBITAL CHARGES
-------------------------------
  0 O s       :     3.009819  s :     3.009819
      pz      :     1.402676  p :     3.847617
      px      :     1.196318
      py      :     1.248623
      dz2     :     0.018166  d :     0.095393
      dxz     :     0.005542
      dyz     :     0.005732
      dx2y2   :     0.050312
      dxy     :     0.015643
      f0      :     0.000673  f :     0.019086
      f+1     :     0.003520
      f-1     :     0.002842
      f+2     :     0.000578
      f-2     :     0.000557
      f+3     :     0.007096
      f-3     :     0.003820
  1 H s       :     0.582066  s :     0.582066
      pz      :     0.177514  p :     0.574276
      px      :     0.141534
      py      :     0.255228
      dz2     :     0.033112  d :     0.357689
      dxz     :     0.010308
      dyz     :     0.105572
      dx2y2   :     0.108957
      dxy     :     0.099741
  2 H s       :     0.582071  s :     0.582071
      pz      :     0.177518  p :     0.574289
      px      :     0.250357
      py      :     0.146414
      dz2     :     0.033112  d :     0.357694
      dxz     :     0.115338
      dyz     :     0.000544
      dx2y2   :     0.083869
      dxy     :     0.124831


                      *****************************
                      * MAYER POPULATION ANALYSIS *
                      *****************************

  NA   - Mulliken gross atomic population
  ZA   - Total nuclear charge
  QA   - Mulliken gross atomic charge
  VA   - Mayer's total valence
  BVA  - Mayer's bonded valence
  FA   - Mayer's free valence

  ATOM       NA         ZA         QA         VA         BVA        FA
  0 O      8.4298     8.0000    -0.4298     2.2747     1.9114     0.3633
  1 H      0.7851     1.0000     0.2149     1.0561     0.9905     0.0655
  2 H      0.7851     1.0000     0.2149     1.0561     0.9906     0.0655

  Mayer bond orders larger than 0.100000
B(  0-O ,  1-H ) :   0.9557 B(  0-O ,  2-H ) :   0.9557 


----------------------------------
MP2 DERIVATIVE INTEGRAL GENERATION
----------------------------------


Input Wavefunction Amplitudes       ... water_MP2_aug-cc-pVTZ_OPT.mp2tsaa.tmp
Input Correlated Electron Density   ... water_MP2_aug-cc-pVTZ_OPT.pmp2re
Input Energy Weighted Density       ... water_MP2_aug-cc-pVTZ_OPT.wmp2.tmp
Input SCF Electron Density          ... water_MP2_aug-cc-pVTZ_OPT.scfp

One-Electron Terms    ...
                        ... One-Electron Terms done
Prescreening matrices              ... done

Batch handling in the gradient evaluation:
Memory available                      ...  256.0 MB
Memory per occupied orbital in Q2     ...    0.3 MB
Memory per occupied orbital in Q3     ...    0.0 MB
Total memory requirement per |i>      ...    0.3 MB
Max. Number of orbitals possible      ...    874
Number of orbitals treated per batch  ...      4
Number of batches to be done          ...      1
Batch   0: i=    1 ...     4

---------------------------------------
MP2 TOTAL ENERGY:      -76.328987821 Eh
---------------------------------------

-----------------------------------
NORM OF THE MP2 GRADIENT:  0.001220
-----------------------------------

-------------------------   --------------------
FINAL SINGLE POINT ENERGY       -76.328987820764
-------------------------   --------------------

------------------------------------------------------------------------------
                         ORCA GEOMETRY RELAXATION STEP
------------------------------------------------------------------------------

Reading the OPT-File                    .... done
Getting information on internals        .... done
Copying old internal coords+grads       .... done
Making the new internal coordinates     .... (new redundants).... done
Validating the new internal coordinates .... (new redundants).... done
Calculating the B-matrix                .... done
Calculating the G,G- and P matrices     .... done
Transforming gradient to internals      .... done
Projecting the internal gradient        .... done
Number of atoms                         ....   3
Number of internal coordinates          ....   3
Current Energy                          ....   -76.328987821 Eh
Current gradient norm                   ....     0.001219809 Eh/bohr
Maximum allowed component of the step   ....  0.300
Current trust radius                    ....  0.300
Evaluating the initial hessian          ....  (Almloef) done
Projecting the Hessian                  .... done
Forming the augmented Hessian           .... done
Diagonalizing the augmented Hessian     .... done
Last element of RFO vector              ....  0.999992454
Lowest eigenvalues of augmented Hessian:
 -0.000005107  0.321236839  0.516984058
Length of the computed step             ....  0.003884913
The final length of the internal step   ....  0.003884913
Converting the step to cartesian space:
 Initial RMS(Int)=    0.0022429555
Transforming coordinates:
 Iter   0:  RMS(Cart)=    0.0014057471 RMS(Int)=    0.0022431148
 Iter   1:  RMS(Cart)=    0.0000011182 RMS(Int)=    0.0000027290
 Iter   2:  RMS(Cart)=    0.0000000026 RMS(Int)=    0.0000000040
done
Storing new coordinates                 .... done

                                .--------------------.
          ----------------------|Geometry convergence|-------------------------
          Item                value                   Tolerance       Converged
          ---------------------------------------------------------------------
          RMS gradient        0.0007691277            0.0001000000      NO
          MAX gradient        0.0011919948            0.0003000000      NO
          RMS step            0.0022429555            0.0020000000      NO
          MAX step            0.0037106339            0.0040000000      YES
          ........................................................
          Max(Bonds)      0.0004      Max(Angles)    0.21
          Max(Dihed)        0.00      Max(Improp)    0.00
          ---------------------------------------------------------------------

The optimization has not yet converged - more geometry cycles are needed


    ---------------------------------------------------------------------------
                         Redundant Internal Coordinates
                            (Angstroem and degrees)

        Definition                    Value    dE/dq     Step     New-Value
    ----------------------------------------------------------------------------
     1. B(H   1,O   0)                0.9616  0.000426 -0.0004    0.9611   
     2. B(H   2,O   0)                0.9615  0.000415 -0.0004    0.9611   
     3. A(H   1,O   0,H   2)          104.53  0.001192   -0.21    104.32   
    ----------------------------------------------------------------------------

         *************************************************************
         *                GEOMETRY OPTIMIZATION CYCLE   2            *
         *************************************************************
---------------------------------
CARTESIAN COORDINATES (ANGSTROEM)
---------------------------------
  O     -0.009157   -0.012957    0.000000
  H     -0.288500    0.906678    0.000000
  H      0.950997    0.030229    0.000000

----------------------------
CARTESIAN COORDINATES (A.U.)
----------------------------
  NO LB      ZA    FRAG     MASS         X           Y           Z
   0 O     8.0000    0    15.999   -0.017304   -0.024485    0.000000
   1 H     1.0000    0     1.008   -0.545187    1.713372    0.000000
   2 H     1.0000    0     1.008    1.797125    0.057125    0.000000

--------------------------------
INTERNAL COORDINATES (ANGSTROEM)
--------------------------------
 O      0   0   0     0.000000000000     0.00000000     0.00000000
 H      1   0   0     0.961124399006     0.00000000     0.00000000
 H      1   2   0     0.961125119338   104.32107635     0.00000000

---------------------------
INTERNAL COORDINATES (A.U.)
---------------------------
 O      0   0   0     0.000000000000     0.00000000     0.00000000
 H      1   0   0     1.816261894751     0.00000000     0.00000000
 H      1   2   0     1.816263255981   104.32107635     0.00000000



           ************************************************************
           *        Program running with 4 parallel MPI-processes     *
           *              working on a common directory               *
           ************************************************************


           ************************************************************
           *        Program running with 4 parallel MPI-processes     *
           *              working on a common directory               *
           ************************************************************

Diagonalization of the overlap matrix:
Smallest eigenvalue                        ... 3.883e-04
Time for diagonalization                   ...    0.001 sec
Threshold for overlap eigenvalues          ... 1.000e-08
Number of eigenvalues below threshold      ... 0
Time for construction of square roots      ...    0.001 sec
Total time needed                          ...    0.002 sec

--------------
SCF ITERATIONS
--------------
ITER       Energy         Delta-E        Max-DP      RMS-DP      [F,P]     Damp
               ***  Starting incremental Fock matrix formation  ***
                      *** Initiating the SOSCF procedure ***
                      *** Re-Reading the Fockian *** 
                      *** Removing any level shift *** 
ITER      Energy       Delta-E        Grad      Rot      Max-DP    RMS-DP
  0    -76.06031632 -76.0603163181  0.000291  0.000291  0.000193  0.000009
               *** Restarting incremental Fock matrix formation ***
  1    -76.06031694  -0.0000006176  0.000092  0.000074  0.000165  0.000005
  2    -76.06031700  -0.0000000655  0.000031  0.000040  0.000054  0.000002
  3    -76.06031701  -0.0000000077  0.000008  0.000006  0.000008  0.000000
                 **** Energy Check signals convergence ****
              ***Rediagonalizing the Fockian in SOSCF/NRSCF***

               *****************************************************
               *                     SUCCESS                       *
               *           SCF CONVERGED AFTER   4 CYCLES          *
               *****************************************************

Total Energy       :          -76.06031701 Eh           -2069.70645 eV
  Last Energy change         ...   -9.1077e-10  Tolerance :   1.0000e-08
  Last MAX-Density change    ...    1.7703e-06  Tolerance :   1.0000e-07
             **** THE GBW FILE WAS UPDATED (water_MP2_aug-cc-pVTZ_OPT.gbw) ****
             **** DENSITY FILE WAS UPDATED (water_MP2_aug-cc-pVTZ_OPT.scfp) ****
             **** ENERGY FILE WAS UPDATED (water_MP2_aug-cc-pVTZ_OPT.en.tmp) ****
             **** THE GBW FILE WAS UPDATED (water_MP2_aug-cc-pVTZ_OPT.gbw) ****
             **** DENSITY FILE WAS UPDATED (water_MP2_aug-cc-pVTZ_OPT.scfp) ****
Total SCF time: 0 days 0 hours 0 min 1 sec 


           ************************************************************
           *        Program running with 4 parallel MPI-processes     *
           *              working on a common directory               *
           ************************************************************

------------------------------------------------------------------------------
                                ORCA  MP2 
------------------------------------------------------------------------------

Freezing NCore=2 chemical core electrons
MP2 will be done in the AO integral direct mode
The Q1-step will be done using symmetric double matrices
Dimension of the basis                    ...   92
Memory devoted for MP2                    ...  256 MB   
Memory needed for all in one shot         ...    4 MB
Number of MOs that can be treated together...   84      
MP2 density construction                  ... relaxed
The MP2 gradient is requested => amplitudes will be stored on disk
Total number of MOs              ...    4
Number of MOs treated per batch  ...    1 
Number of batches necessary      ...    1 
OPERATORS   0/  0 PASS   0
-----------------------------------------------
 MP2 CORRELATION ENERGY   :     -0.268674334 Eh
-----------------------------------------------


---------------------
MP2 DENSITY FORMATION
---------------------

Completing the external part of the density      ... done
Storing the unrelaxed density                    ... done

Calculating G(D)                                 ... done
Completing the Lagrangian                        ... done
Solving the Z-vector equations                   ... 

------------------------------------------------------------------------------
                           ORCA CP-SCF CALCULATION
------------------------------------------------------------------------------

Input orbitals are from        ... water_MP2_aug-cc-pVTZ_OPT.gbw
Input Perturbation             ... water_MP2_aug-cc-pVTZ_OPT.pin.tmp
Wavefunction output            ... water_MP2_aug-cc-pVTZ_OPT.pout.tmp
Perturbation mode              ... Real perturbation (singlet)
Solver                         ... POPLE
Max. number of iterations      ... 128
Convergence tolerance          ... 1.000e-08
Integral handling              ... Direct
Number of perturbations        ... 1
Number of operators            ... 1
Orbital ranges used for CP-SCF:
 Operator 0:  Orbitals   0...  4  to   5... 91
Variables per vector in CP-SCF ... 435
Number of vectors sought       ... 1
     CP-SCF ITERATION   0: 
     CP-SCF ITERATION   1:      0.000130054176
     CP-SCF ITERATION   2:      0.000005095667
     CP-SCF ITERATION   3:      0.000000163394
     CP-SCF ITERATION   4:      0.000000005619
                                                 ... done
Finalizing the relaxed density                   ... done
Transforming P to the AO basis                   ... done
Storing the relaxed density                      ... done

------------------------------------
ENERGY WEIGHTED DENSITY FINALIZATION
------------------------------------

Gathering the parts of the W-matrix              ...                                                      done
Forming the Z-density                            ... done
Transforming Z to the AO basis                   ... done
Calculating G(Z)                                 ... done
Finalizing the W-matrix                          ...                                                      done
Transforming W to the AO basis and storing       ... done

----------------------------------
MP2 DERIVATIVE INTEGRAL GENERATION
----------------------------------


Input Wavefunction Amplitudes       ... water_MP2_aug-cc-pVTZ_OPT.mp2tsaa.tmp
Input Correlated Electron Density   ... water_MP2_aug-cc-pVTZ_OPT.pmp2re
Input Energy Weighted Density       ... water_MP2_aug-cc-pVTZ_OPT.wmp2.tmp
Input SCF Electron Density          ... water_MP2_aug-cc-pVTZ_OPT.scfp

One-Electron Terms    ...
                        ... One-Electron Terms done
Prescreening matrices              ... done

Batch handling in the gradient evaluation:
Memory available                      ...  256.0 MB
Memory per occupied orbital in Q2     ...    0.3 MB
Memory per occupied orbital in Q3     ...    0.0 MB
Total memory requirement per |i>      ...    0.3 MB
Max. Number of orbitals possible      ...    874
Number of orbitals treated per batch  ...      4
Number of batches to be done          ...      1
Batch   0: i=    1 ...     4

---------------------------------------
MP2 TOTAL ENERGY:      -76.328991344 Eh
---------------------------------------

-----------------------------------
NORM OF THE MP2 GRADIENT:  0.000798
-----------------------------------

-------------------------   --------------------
FINAL SINGLE POINT ENERGY       -76.328991343948
-------------------------   --------------------

------------------------------------------------------------------------------
                         ORCA GEOMETRY RELAXATION STEP
------------------------------------------------------------------------------

Reading the OPT-File                    .... done
Getting information on internals        .... done
Copying old internal coords+grads       .... done
Making the new internal coordinates     .... (new redundants).... done
Validating the new internal coordinates .... (new redundants).... done
Calculating the B-matrix                .... done
Calculating the G,G- and P matrices     .... done
Transforming gradient to internals      .... done
Projecting the internal gradient        .... done
Number of atoms                         ....   3
Number of internal coordinates          ....   3
Current Energy                          ....   -76.328991344 Eh
Current gradient norm                   ....     0.000797769 Eh/bohr
Maximum allowed component of the step   ....  0.300
Current trust radius                    ....  0.300
Updating the Hessian (BFGS)             .... done
Forming the augmented Hessian           .... done
Diagonalizing the augmented Hessian     .... done
Last element of RFO vector              ....  0.999994323
Lowest eigenvalues of augmented Hessian:
 -0.000001928  0.166925840  0.516993760
Length of the computed step             ....  0.003369483
The final length of the internal step   ....  0.003369483
Converting the step to cartesian space:
 Initial RMS(Int)=    0.0019453722
Transforming coordinates:
 Iter   0:  RMS(Cart)=    0.0010488162 RMS(Int)=    0.0019453238
 Iter   1:  RMS(Cart)=    0.0000011239 RMS(Int)=    0.0000020977
 Iter   2:  RMS(Cart)=    0.0000000014 RMS(Int)=    0.0000000027
done
Storing new coordinates                 .... done

                                .--------------------.
          ----------------------|Geometry convergence|-------------------------
          Item                value                   Tolerance       Converged
          ---------------------------------------------------------------------
          Energy change      -0.0000035232            0.0000050000      YES
          RMS gradient        0.0003381652            0.0001000000      NO
          MAX gradient        0.0005555421            0.0003000000      NO
          RMS step            0.0019453722            0.0020000000      YES
          MAX step            0.0033497590            0.0040000000      YES
          ........................................................
          Max(Bonds)      0.0001      Max(Angles)    0.19
          Max(Dihed)        0.00      Max(Improp)    0.00
          ---------------------------------------------------------------------

The optimization has not yet converged - more geometry cycles are needed


    ---------------------------------------------------------------------------
                         Redundant Internal Coordinates
                            (Angstroem and degrees)

        Definition                    Value    dE/dq     Step     New-Value
    ----------------------------------------------------------------------------
     1. B(H   1,O   0)                0.9611 -0.000132  0.0001    0.9613   
     2. B(H   2,O   0)                0.9611 -0.000131  0.0001    0.9613   
     3. A(H   1,O   0,H   2)          104.32  0.000556   -0.19    104.13   
    ----------------------------------------------------------------------------

         *************************************************************
         *                GEOMETRY OPTIMIZATION CYCLE   3            *
         *************************************************************
---------------------------------
CARTESIAN COORDINATES (ANGSTROEM)
---------------------------------
  O     -0.009678   -0.013694    0.000000
  H     -0.287520    0.906537    0.000000
  H      0.950539    0.031107    0.000000

----------------------------
CARTESIAN COORDINATES (A.U.)
----------------------------
  NO LB      ZA    FRAG     MASS         X           Y           Z
   0 O     8.0000    0    15.999   -0.018290   -0.025878    0.000000
   1 H     1.0000    0     1.008   -0.543335    1.713107    0.000000
   2 H     1.0000    0     1.008    1.796258    0.058783    0.000000

--------------------------------
INTERNAL COORDINATES (ANGSTROEM)
--------------------------------
 O      0   0   0     0.000000000000     0.00000000     0.00000000
 H      1   0   0     0.961260238251     0.00000000     0.00000000
 H      1   2   0     0.961261724031   104.12914930     0.00000000

---------------------------
INTERNAL COORDINATES (A.U.)
---------------------------
 O      0   0   0     0.000000000000     0.00000000     0.00000000
 H      1   0   0     1.816518593722     0.00000000     0.00000000
 H      1   2   0     1.816521401439   104.12914930     0.00000000



           ************************************************************
           *        Program running with 4 parallel MPI-processes     *
           *              working on a common directory               *
           ************************************************************


           ************************************************************
           *        Program running with 4 parallel MPI-processes     *
           *              working on a common directory               *
           ************************************************************

Diagonalization of the overlap matrix:
Smallest eigenvalue                        ... 3.887e-04
Time for diagonalization                   ...    0.001 sec
Threshold for overlap eigenvalues          ... 1.000e-08
Number of eigenvalues below threshold      ... 0
Time for construction of square roots      ...    0.001 sec
Total time needed                          ...    0.002 sec

--------------
SCF ITERATIONS
--------------
ITER       Energy         Delta-E        Max-DP      RMS-DP      [F,P]     Damp
               ***  Starting incremental Fock matrix formation  ***
                      *** Initiating the SOSCF procedure ***
                      *** Re-Reading the Fockian *** 
                      *** Removing any level shift *** 
ITER      Energy       Delta-E        Grad      Rot      Max-DP    RMS-DP
  0    -76.06029169 -76.0602916909  0.000208  0.000208  0.000207  0.000008
               *** Restarting incremental Fock matrix formation ***
  1    -76.06029219  -0.0000004943  0.000075  0.000060  0.000113  0.000004
  2    -76.06029225  -0.0000000608  0.000023  0.000033  0.000050  0.000002
  3    -76.06029225  -0.0000000068  0.000006  0.000005  0.000011  0.000000
  4    -76.06029225  -0.0000000004  0.000003  0.000001  0.000003  0.000000
                 **** Energy Check signals convergence ****
              ***Rediagonalizing the Fockian in SOSCF/NRSCF***

               *****************************************************
               *                     SUCCESS                       *
               *           SCF CONVERGED AFTER   5 CYCLES          *
               *****************************************************

Total Energy       :          -76.06029225 Eh           -2069.70577 eV
  Last Energy change         ...   -9.0438e-11  Tolerance :   1.0000e-08
  Last MAX-Density change    ...    5.2113e-07  Tolerance :   1.0000e-07
             **** THE GBW FILE WAS UPDATED (water_MP2_aug-cc-pVTZ_OPT.gbw) ****
             **** DENSITY FILE WAS UPDATED (water_MP2_aug-cc-pVTZ_OPT.scfp) ****
             **** ENERGY FILE WAS UPDATED (water_MP2_aug-cc-pVTZ_OPT.en.tmp) ****
             **** THE GBW FILE WAS UPDATED (water_MP2_aug-cc-pVTZ_OPT.gbw) ****
             **** DENSITY FILE WAS UPDATED (water_MP2_aug-cc-pVTZ_OPT.scfp) ****
Total SCF time: 0 days 0 hours 0 min 1 sec 


           ************************************************************
           *        Program running with 4 parallel MPI-processes     *
           *              working on a common directory               *
           ************************************************************

------------------------------------------------------------------------------
                                ORCA  MP2 
------------------------------------------------------------------------------

Freezing NCore=2 chemical core electrons
MP2 will be done in the AO integral direct mode
The Q1-step will be done using symmetric double matrices
Dimension of the basis                    ...   92
Memory devoted for MP2                    ...  256 MB   
Memory needed for all in one shot         ...    4 MB
Number of MOs that can be treated together...   84      
MP2 density construction                  ... relaxed
The MP2 gradient is requested => amplitudes will be stored on disk
Total number of MOs              ...    4
Number of MOs treated per batch  ...    1 
Number of batches necessary      ...    1 
OPERATORS   0/  0 PASS   0
-----------------------------------------------
 MP2 CORRELATION ENERGY   :     -0.268700136 Eh
-----------------------------------------------


---------------------
MP2 DENSITY FORMATION
---------------------

Completing the external part of the density      ... done
Storing the unrelaxed density                    ... done

Calculating G(D)                                 ... done
Completing the Lagrangian                        ... done
Solving the Z-vector equations                   ... 

------------------------------------------------------------------------------
                           ORCA CP-SCF CALCULATION
------------------------------------------------------------------------------

Input orbitals are from        ... water_MP2_aug-cc-pVTZ_OPT.gbw
Input Perturbation             ... water_MP2_aug-cc-pVTZ_OPT.pin.tmp
Wavefunction output            ... water_MP2_aug-cc-pVTZ_OPT.pout.tmp
Perturbation mode              ... Real perturbation (singlet)
Solver                         ... POPLE
Max. number of iterations      ... 128
Convergence tolerance          ... 1.000e-08
Integral handling              ... Direct
Number of perturbations        ... 1
Number of operators            ... 1
Orbital ranges used for CP-SCF:
 Operator 0:  Orbitals   0...  4  to   5... 91
Variables per vector in CP-SCF ... 435
Number of vectors sought       ... 1
     CP-SCF ITERATION   0: 
     CP-SCF ITERATION   1:      0.000130363379
     CP-SCF ITERATION   2:      0.000005113280
     CP-SCF ITERATION   3:      0.000000163977
     CP-SCF ITERATION   4:      0.000000005586
                                                 ... done
Finalizing the relaxed density                   ... done
Transforming P to the AO basis                   ... done
Storing the relaxed density                      ... done

------------------------------------
ENERGY WEIGHTED DENSITY FINALIZATION
------------------------------------

Gathering the parts of the W-matrix              ...                                                      done
Forming the Z-density                            ... done
Transforming Z to the AO basis                   ... done
Calculating G(Z)                                 ... done
Finalizing the W-matrix                          ...                                                      done
Transforming W to the AO basis and storing       ... done

----------------------------------
MP2 DERIVATIVE INTEGRAL GENERATION
----------------------------------


Input Wavefunction Amplitudes       ... water_MP2_aug-cc-pVTZ_OPT.mp2tsaa.tmp
Input Correlated Electron Density   ... water_MP2_aug-cc-pVTZ_OPT.pmp2re
Input Energy Weighted Density       ... water_MP2_aug-cc-pVTZ_OPT.wmp2.tmp
Input SCF Electron Density          ... water_MP2_aug-cc-pVTZ_OPT.scfp

One-Electron Terms    ...
                        ... One-Electron Terms done
Prescreening matrices              ... done

Batch handling in the gradient evaluation:
Memory available                      ...  256.0 MB
Memory per occupied orbital in Q2     ...    0.3 MB
Memory per occupied orbital in Q3     ...    0.0 MB
Total memory requirement per |i>      ...    0.3 MB
Max. Number of orbitals possible      ...    874
Number of orbitals treated per batch  ...      4
Number of batches to be done          ...      1
Batch   0: i=    1 ...     4

---------------------------------------
MP2 TOTAL ENERGY:      -76.328992389 Eh
---------------------------------------

-----------------------------------
NORM OF THE MP2 GRADIENT:  0.000217
-----------------------------------

-------------------------   --------------------
FINAL SINGLE POINT ENERGY       -76.328992389424
-------------------------   --------------------

------------------------------------------------------------------------------
                         ORCA GEOMETRY RELAXATION STEP
------------------------------------------------------------------------------

Reading the OPT-File                    .... done
Getting information on internals        .... done
Copying old internal coords+grads       .... done
Making the new internal coordinates     .... (new redundants).... done
Validating the new internal coordinates .... (new redundants).... done
Calculating the B-matrix                .... done
Calculating the G,G- and P matrices     .... done
Transforming gradient to internals      .... done
Projecting the internal gradient        .... done
Number of atoms                         ....   3
Number of internal coordinates          ....   3
Current Energy                          ....   -76.328992389 Eh
Current gradient norm                   ....     0.000216521 Eh/bohr
Maximum allowed component of the step   ....  0.300
Current trust radius                    ....  0.300
Updating the Hessian (BFGS)             .... done
Forming the augmented Hessian           .... done
Diagonalizing the augmented Hessian     .... done
Last element of RFO vector              ....  0.999999905
Lowest eigenvalues of augmented Hessian:
 -0.000000052  0.153046508  0.516993657
Length of the computed step             ....  0.000435724
The final length of the internal step   ....  0.000435724
Converting the step to cartesian space:
 Initial RMS(Int)=    0.0002515656
Transforming coordinates:
 Iter   0:  RMS(Cart)=    0.0001015600 RMS(Int)=    0.0002515628
 Iter   1:  RMS(Cart)=    0.0000000197 RMS(Int)=    0.0000000304
done
Storing new coordinates                 .... done

                                .--------------------.
          ----------------------|Geometry convergence|-------------------------
          Item                value                   Tolerance       Converged
          ---------------------------------------------------------------------
          Energy change      -0.0000010455            0.0000050000      YES
          RMS gradient        0.0000856603            0.0001000000      YES
          MAX gradient        0.0001015161            0.0003000000      YES
          RMS step            0.0002515656            0.0020000000      YES
          MAX step            0.0003487118            0.0040000000      YES
          ........................................................
          Max(Bonds)      0.0001      Max(Angles)    0.02
          Max(Dihed)        0.00      Max(Improp)    0.00
          ---------------------------------------------------------------------

                    ***********************HURRAY********************
                    ***        THE OPTIMIZATION HAS CONVERGED     ***
                    *************************************************


    ---------------------------------------------------------------------------
                         Redundant Internal Coordinates

                          --- Optimized Parameters ---  
                            (Angstroem and degrees)

        Definition                    OldVal   dE/dq     Step     FinalVal
    ----------------------------------------------------------------------------
     1. B(H   1,O   0)                0.9613 -0.000102  0.0001    0.9614   
     2. B(H   2,O   0)                0.9613 -0.000100  0.0001    0.9614   
     3. A(H   1,O   0,H   2)          104.13  0.000041   -0.02    104.11   
    ----------------------------------------------------------------------------
                 *******************************************************
                 *** FINAL ENERGY EVALUATION AT THE STATIONARY POINT ***
                 ***               (AFTER    3 CYCLES)               ***
                 *******************************************************
---------------------------------
CARTESIAN COORDINATES (ANGSTROEM)
---------------------------------
  O     -0.009752   -0.013799    0.000000
  H     -0.287462    0.906575    0.000000
  H      0.950554    0.031174    0.000000

----------------------------
CARTESIAN COORDINATES (A.U.)
----------------------------
  NO LB      ZA    FRAG     MASS         X           Y           Z
   0 O     8.0000    0    15.999   -0.018429   -0.026076    0.000000
   1 H     1.0000    0     1.008   -0.543225    1.713178    0.000000
   2 H     1.0000    0     1.008    1.796287    0.058910    0.000000

--------------------------------
INTERNAL COORDINATES (ANGSTROEM)
--------------------------------
 O      0   0   0     0.000000000000     0.00000000     0.00000000
 H      1   0   0     0.961358623886     0.00000000     0.00000000
 H      1   2   0     0.961358852029   104.10916958     0.00000000

---------------------------
INTERNAL COORDINATES (A.U.)
---------------------------
 O      0   0   0     0.000000000000     0.00000000     0.00000000
 H      1   0   0     1.816704515628     0.00000000     0.00000000
 H      1   2   0     1.816704946756   104.10916958     0.00000000

---------------------
BASIS SET INFORMATION
---------------------
There are 2 groups of distinct atoms

 Group   1 Type O   : 19s6p3d2f contracted to 5s4p3d2f pattern {88111/3111/111/11}
 Group   2 Type H   : 6s3p2d contracted to 4s3p2d pattern {3111/111/11}

Atom   0O    basis set group =>   1
Atom   1H    basis set group =>   2
Atom   2H    basis set group =>   2


           ************************************************************
           *        Program running with 4 parallel MPI-processes     *
           *              working on a common directory               *
           ************************************************************
------------------------------------------------------------------------------
                           ORCA GTO INTEGRAL CALCULATION
------------------------------------------------------------------------------

                         BASIS SET STATISTICS AND STARTUP INFO

 # of primitive gaussian shells          ...   52
 # of primitive gaussian functions       ...  116
 # of contracted shells                  ...   32
 # of contracted basis functions         ...   92
 Highest angular momentum                ...    3
 Maximum contraction depth               ...    8
 Integral package used                   ... LIBINT
 Integral threshhold            Thresh   ...  2.500e-11
 Primitive cut-off              TCut     ...  2.500e-12


------------------------------ INTEGRAL EVALUATION ----------------------------


 * One electron integrals 
 Pre-screening matrix                    ... done
 Shell pair data                         ... done (   0.000 sec)



           ************************************************************
           *        Program running with 4 parallel MPI-processes     *
           *              working on a common directory               *
           ************************************************************
-------------------------------------------------------------------------------
                                 ORCA SCF
-------------------------------------------------------------------------------

------------
SCF SETTINGS
------------
Hamiltonian:
 Ab initio Hamiltonian  Method          .... Hartree-Fock(GTOs)


General Settings:
 Integral files         IntName         .... water_MP2_aug-cc-pVTZ_OPT
 Hartree-Fock type      HFTyp           .... RHF
 Total Charge           Charge          ....    0
 Multiplicity           Mult            ....    1
 Number of Electrons    NEL             ....   10
 Basis Dimension        Dim             ....   92
 Nuclear Repulsion      ENuc            ....      9.1561590521 Eh

Convergence Acceleration:
 DIIS                   CNVDIIS         .... on
   Start iteration      DIISMaxIt       ....    12
   Startup error        DIISStart       ....  0.200000
   # of expansion vecs  DIISMaxEq       ....     5
   Bias factor          DIISBfac        ....   1.050
   Max. coefficient     DIISMaxC        ....  10.000
 Newton-Raphson         CNVNR           .... off
 SOSCF                  CNVSOSCF        .... on
   Start iteration      SOSCFMaxIt      ....   150
   Startup grad/error   SOSCFStart      ....  0.003300
 Level Shifting         CNVShift        .... on
   Level shift para.    LevelShift      ....    0.2500
   Turn off err/grad.   ShiftErr        ....    0.0010
 Zerner damping         CNVZerner       .... off
 Static damping         CNVDamp         .... on
   Fraction old density DampFac         ....    0.7000
   Max. Damping (<1)    DampMax         ....    0.9800
   Min. Damping (>=0)   DampMin         ....    0.0000
   Turn off err/grad.   DampErr         ....    0.1000
 Fernandez-Rico         CNVRico         .... off

SCF Procedure:
 Maximum # iterations   MaxIter         ....   125
 SCF integral mode      SCFMode         .... Direct
   Integral package                     .... LIBINT
 Reset frequency        DirectResetFreq ....    20
 Integral Threshold     Thresh          ....  2.500e-11 Eh
 Primitive CutOff       TCut            ....  2.500e-12 Eh

Convergence Tolerance:
 Convergence Check Mode ConvCheckMode   .... Total+1el-Energy
 Convergence forced     ConvForced      .... 1
 Energy Change          TolE            ....  1.000e-08 Eh
 1-El. energy change                    ....  1.000e-05 Eh
 Orbital Gradient       TolG            ....  1.000e-05
 Orbital Rotation angle TolX            ....  1.000e-05
[...]

Fock matrix formation       ....       0.707 sec  ( 79.4%)
Diagonalization             ....       0.001 sec  (  0.1%)
Density matrix formation    ....       0.000 sec  (  0.0%)
Population analysis         ....       0.001 sec  (  0.1%)
Initial guess               ....       0.001 sec  (  0.2%)
Orbital Transformation      ....       0.000 sec  (  0.0%)
Orbital Orthonormalization  ....       0.001 sec  (  0.1%)
DIIS solution               ....       0.000 sec  (  0.0%)
SOSCF solution              ....       0.002 sec  (  0.2%)


           ************************************************************
           *        Program running with 4 parallel MPI-processes     *
           *              working on a common directory               *
           ************************************************************

------------------------------------------------------------------------------
                                ORCA  MP2 
------------------------------------------------------------------------------

Freezing NCore=2 chemical core electrons
MP2 will be done in the AO integral direct mode
The Q1-step will be done using symmetric double matrices
Dimension of the basis                    ...   92
Memory devoted for MP2                    ...  256 MB   
Memory needed for all in one shot         ...    4 MB
Number of MOs that can be treated together...   84      
MP2 density construction                  ... relaxed
The MP2 gradient is requested => amplitudes will be stored on disk
Total number of MOs              ...    4
Number of MOs treated per batch  ...    1 
Number of batches necessary      ...    1 
OPERATORS   0/  0 PASS   0
-----------------------------------------------
 MP2 CORRELATION ENERGY   :     -0.268709530 Eh
-----------------------------------------------


---------------------
MP2 DENSITY FORMATION
---------------------

Completing the external part of the density      ... done
Storing the unrelaxed density                    ... done

Calculating G(D)                                 ... done
Completing the Lagrangian                        ... done
Solving the Z-vector equations                   ... 

------------------------------------------------------------------------------
                           ORCA CP-SCF CALCULATION
------------------------------------------------------------------------------

Input orbitals are from        ... water_MP2_aug-cc-pVTZ_OPT.gbw
Input Perturbation             ... water_MP2_aug-cc-pVTZ_OPT.pin.tmp
Wavefunction output            ... water_MP2_aug-cc-pVTZ_OPT.pout.tmp
Perturbation mode              ... Real perturbation (singlet)
Solver                         ... POPLE
Max. number of iterations      ... 128
Convergence tolerance          ... 1.000e-08
Integral handling              ... Direct
Number of perturbations        ... 1
Number of operators            ... 1
Orbital ranges used for CP-SCF:
 Operator 0:  Orbitals   0...  4  to   5... 91
Variables per vector in CP-SCF ... 435
Number of vectors sought       ... 1
     CP-SCF ITERATION   0: 
     CP-SCF ITERATION   1:      0.000130485523
     CP-SCF ITERATION   2:      0.000005118027
     CP-SCF ITERATION   3:      0.000000164129
     CP-SCF ITERATION   4:      0.000000005584
                                                 ... done
Finalizing the relaxed density                   ... done
Transforming P to the AO basis                   ... done
Storing the relaxed density                      ... done

------------------------------------
ENERGY WEIGHTED DENSITY FINALIZATION
------------------------------------

Gathering the parts of the W-matrix              ...                                                      done
Forming the Z-density                            ... done
Transforming Z to the AO basis                   ... done
Calculating G(Z)                                 ... done
Finalizing the W-matrix                          ...                                                      done
Transforming W to the AO basis and storing       ... done

                *********************************************
                * UNRELAXED MP2 DENSITY POPULATION ANALYSIS *
                *********************************************

------------------------------------------------------------------------------
                           ORCA POPULATION ANALYSIS
------------------------------------------------------------------------------
Input electron density              ... water_MP2_aug-cc-pVTZ_OPT.pmp2ur
BaseName (.gbw .S,...)              ... water_MP2_aug-cc-pVTZ_OPT

                    ********************************
                    * MULLIKEN POPULATION ANALYSIS *
                    ********************************

-----------------------
MULLIKEN ATOMIC CHARGES
-----------------------
   0 O :   -0.432501
   1 H :    0.216251
   2 H :    0.216251
Sum of atomic charges:   -0.0000000

--------------------------------
MULLIKEN REDUCED ORBITAL CHARGES
--------------------------------
  0 O s       :     3.865781  s :     3.865781
      pz      :     1.860756  p :     4.515644
      px      :     1.285130
      py      :     1.369757
      dz2     :     0.007962  d :     0.045997
      dxz     :     0.006839
      dyz     :     0.007506
      dx2y2   :     0.016035
      dxy     :     0.007655
      f0      :     0.000693  f :     0.005080
      f+1     :     0.001028
      f-1     :     0.000938
      f+2     :     0.000548
      f-2     :     0.000552
      f+3     :     0.000651
      f-3     :     0.000671
  1 H s       :     0.665819  s :     0.665819
      pz      :     0.052108  p :     0.099491
      px      :     0.030780
      py      :     0.016603
      dz2     :     0.000161  d :     0.018440
      dxz     :     0.001252
      dyz     :     0.009470
      dx2y2   :     0.004605
      dxy     :     0.002953
  2 H s       :     0.665819  s :     0.665819
      pz      :     0.052108  p :     0.099491
      px      :     0.015122
      py      :     0.032260
      dz2     :     0.000161  d :     0.018440
      dxz     :     0.010586
      dyz     :     0.000136
      dx2y2   :     0.000874
      dxy     :     0.006684


                     *******************************
                     * LOEWDIN POPULATION ANALYSIS *
                     *******************************

----------------------
LOEWDIN ATOMIC CHARGES
----------------------
   0 O :    1.021532
   1 H :   -0.510766
   2 H :   -0.510766

-------------------------------
LOEWDIN REDUCED ORBITAL CHARGES
-------------------------------
  0 O s       :     3.008946  s :     3.008946
      pz      :     1.415172  p :     3.852291
      px      :     1.190308
      py      :     1.246811
      dz2     :     0.018245  d :     0.098177
      dxz     :     0.005638
      dyz     :     0.005925
      dx2y2   :     0.051894
      dxy     :     0.016476
      f0      :     0.000710  f :     0.019053
      f+1     :     0.003432
      f-1     :     0.002786
      f+2     :     0.000579
      f-2     :     0.000564
      f+3     :     0.007023
      f-3     :     0.003960
  1 H s       :     0.586551  s :     0.586551
      pz      :     0.166969  p :     0.558842
      px      :     0.140197
      py      :     0.251675
      dz2     :     0.033473  d :     0.365374
      dxz     :     0.009965
      dyz     :     0.110049
      dx2y2   :     0.110081
      dxy     :     0.101805
  2 H s       :     0.586551  s :     0.586551
      pz      :     0.166969  p :     0.558841
      px      :     0.249035
      py      :     0.142837
      dz2     :     0.033473  d :     0.365374
      dxz     :     0.119335
      dyz     :     0.000680
      dx2y2   :     0.083991
      dxy     :     0.127895


                      *****************************
                      * MAYER POPULATION ANALYSIS *
                      *****************************

  NA   - Mulliken gross atomic population
  ZA   - Total nuclear charge
  QA   - Mulliken gross atomic charge
  VA   - Mayer's total valence
  BVA  - Mayer's bonded valence
  FA   - Mayer's free valence

  ATOM       NA         ZA         QA         VA         BVA        FA
  0 O      8.4325     8.0000    -0.4325     2.2544     1.8843     0.3702
  1 H      0.7837     1.0000     0.2163     1.0425     0.9760     0.0665
  2 H      0.7837     1.0000     0.2163     1.0425     0.9760     0.0665

  Mayer bond orders larger than 0.100000
B(  0-O ,  1-H ) :   0.9421 B(  0-O ,  2-H ) :   0.9421 


                *******************************************
                * RELAXED MP2 DENSITY POPULATION ANALYSIS *
                *******************************************

------------------------------------------------------------------------------
                           ORCA POPULATION ANALYSIS
------------------------------------------------------------------------------
Input electron density              ... water_MP2_aug-cc-pVTZ_OPT.pmp2re
BaseName (.gbw .S,...)              ... water_MP2_aug-cc-pVTZ_OPT

                    ********************************
                    * MULLIKEN POPULATION ANALYSIS *
                    ********************************

-----------------------
MULLIKEN ATOMIC CHARGES
-----------------------
   0 O :   -0.429501
   1 H :    0.214750
   2 H :    0.214751
Sum of atomic charges:   -0.0000000

--------------------------------
MULLIKEN REDUCED ORBITAL CHARGES
--------------------------------
  0 O s       :     3.866311  s :     3.866311
      pz      :     1.844577  p :     4.512831
      px      :     1.292974
      py      :     1.375280
      dz2     :     0.008097  d :     0.045225
      dxz     :     0.007030
      dyz     :     0.007889
      dx2y2   :     0.014484
      dxy     :     0.007725
      f0      :     0.000737  f :     0.005134
      f+1     :     0.001051
      f-1     :     0.000967
      f+2     :     0.000548
      f-2     :     0.000554
      f+3     :     0.000643
      f-3     :     0.000634
  1 H s       :     0.658197  s :     0.658197
      pz      :     0.061175  p :     0.111214
      px      :     0.032058
      py      :     0.017982
      dz2     :    -0.000033  d :     0.015839
      dxz     :     0.001261
      dyz     :     0.008174
      dx2y2   :     0.003828
      dxy     :     0.002609
  2 H s       :     0.658196  s :     0.658196
      pz      :     0.061175  p :     0.111214
      px      :     0.014224
      py      :     0.035815
      dz2     :    -0.000033  d :     0.015839
      dxz     :     0.009302
      dyz     :     0.000133
      dx2y2   :     0.000385
      dxy     :     0.006053


                     *******************************
                     * LOEWDIN POPULATION ANALYSIS *
                     *******************************

----------------------
LOEWDIN ATOMIC CHARGES
----------------------
   0 O :    1.028900
   1 H :   -0.514450
   2 H :   -0.514450

-------------------------------
LOEWDIN REDUCED ORBITAL CHARGES
-------------------------------
  0 O s       :     3.010071  s :     3.010071
      pz      :     1.402598  p :     3.846552
      px      :     1.195943
      py      :     1.248012
      dz2     :     0.018174  d :     0.095316
      dxz     :     0.005542
      dyz     :     0.005734
      dx2y2   :     0.050373
      dxy     :     0.015492
      f0      :     0.000673  f :     0.019161
      f+1     :     0.003512
      f-1     :     0.002850
      f+2     :     0.000578
      f-2     :     0.000555
      f+3     :     0.007075
      f-3     :     0.003918
  1 H s       :     0.581755  s :     0.581755
      pz      :     0.177536  p :     0.574685
      px      :     0.141846
      py      :     0.255304
      dz2     :     0.033124  d :     0.358010
      dxz     :     0.010083
      dyz     :     0.105817
      dx2y2   :     0.108876
      dxy     :     0.100110
  2 H s       :     0.581755  s :     0.581755
      pz      :     0.177536  p :     0.574685
      px      :     0.250285
      py      :     0.146864
      dz2     :     0.033124  d :     0.358010
      dxz     :     0.115322
      dyz     :     0.000579
      dx2y2   :     0.083740
      dxy     :     0.125245


                      *****************************
                      * MAYER POPULATION ANALYSIS *
                      *****************************

  NA   - Mulliken gross atomic population
  ZA   - Total nuclear charge
  QA   - Mulliken gross atomic charge
  VA   - Mayer's total valence
  BVA  - Mayer's bonded valence
  FA   - Mayer's free valence

  ATOM       NA         ZA         QA         VA         BVA        FA
  0 O      8.4295     8.0000    -0.4295     2.2748     1.9116     0.3632
  1 H      0.7852     1.0000     0.2148     1.0561     0.9905     0.0655
  2 H      0.7852     1.0000     0.2148     1.0561     0.9905     0.0655

  Mayer bond orders larger than 0.100000
B(  0-O ,  1-H ) :   0.9558 B(  0-O ,  2-H ) :   0.9558 


----------------------------------
MP2 DERIVATIVE INTEGRAL GENERATION
----------------------------------


Input Wavefunction Amplitudes       ... water_MP2_aug-cc-pVTZ_OPT.mp2tsaa.tmp
Input Correlated Electron Density   ... water_MP2_aug-cc-pVTZ_OPT.pmp2re
Input Energy Weighted Density       ... water_MP2_aug-cc-pVTZ_OPT.wmp2.tmp
Input SCF Electron Density          ... water_MP2_aug-cc-pVTZ_OPT.scfp

One-Electron Terms    ...
                        ... One-Electron Terms done
Prescreening matrices              ... done

Batch handling in the gradient evaluation:
Memory available                      ...  256.0 MB
Memory per occupied orbital in Q2     ...    0.3 MB
Memory per occupied orbital in Q3     ...    0.0 MB
Total memory requirement per |i>      ...    0.3 MB
Max. Number of orbitals possible      ...    874
Number of orbitals treated per batch  ...      4
Number of batches to be done          ...      1
Batch   0: i=    1 ...     4

---------------------------------------
MP2 TOTAL ENERGY:      -76.328992409 Eh
---------------------------------------

-----------------------------------
NORM OF THE MP2 GRADIENT:  0.000025
-----------------------------------

-------------------------   --------------------
FINAL SINGLE POINT ENERGY       -76.328992409171
-------------------------   --------------------

                                *** OPTIMIZATION RUN DONE ***

                            ***************************************
                            *     ORCA property calculations      *
                            ***************************************

                                    ---------------------
                                    Active property flags
                                    ---------------------
   (+) Dipole Moment


------------------------------------------------------------------------------
                       ORCA ELECTRIC PROPERTIES CALCULATION
------------------------------------------------------------------------------

Dipole Moment Calculation                       ... on
Quadrupole Moment Calculation                   ... off
Polarizability Calculation                      ... off
GBWName                                         ... water_MP2_aug-cc-pVTZ_OPT.gbw
Electron density file                           ... water_MP2_aug-cc-pVTZ_OPT.scfp
The origin for moment calculation is the CENTER OF MASS  = ( 0.053747,  0.075996  0.000000)

-------------
DIPOLE MOMENT
-------------
                                X             Y             Z
Electronic contribution:     -0.11555      -0.16342       0.00000
Nuclear contribution   :      0.56817       0.80352       0.00000
                        -----------------------------------------
Total Dipole Moment    :      0.45261       0.64010       0.00000
                        -----------------------------------------
Magnitude (a.u.)       :      0.78395
Magnitude (Debye)      :      1.99265



--------------------
Rotational spectrum 
--------------------
 
Rotational constants in cm-1:    26.943442    14.548736     9.447396 
Rotational constants in MHz : 807744.057798 436160.125777 283225.793833 

 Dipole components along the rotational axes: 
x,y,z [a.u.] :    -0.000000     0.783951     0.000000 
x,y,z [Debye]:    -0.000001     1.992646     0.000000 

 

                         *** MP2 UNRELAXED DENSITY ***

------------------------------------------------------------------------------
                       ORCA ELECTRIC PROPERTIES CALCULATION
------------------------------------------------------------------------------

Dipole Moment Calculation                       ... on
Quadrupole Moment Calculation                   ... off
Polarizability Calculation                      ... off
GBWName                                         ... water_MP2_aug-cc-pVTZ_OPT.gbw
Electron density file                           ... water_MP2_aug-cc-pVTZ_OPT.pmp2ur
The origin for moment calculation is the CENTER OF MASS  = ( 0.053747,  0.075996  0.000000)

-------------
DIPOLE MOMENT
-------------
                                X             Y             Z
Electronic contribution:     -0.12502      -0.17680       0.00000
Nuclear contribution   :      0.56817       0.80352       0.00000
                        -----------------------------------------
Total Dipole Moment    :      0.44315       0.62672       0.00000
                        -----------------------------------------
Magnitude (a.u.)       :      0.76756
Magnitude (Debye)      :      1.95099



--------------------
Rotational spectrum 
--------------------
 
Rotational constants in cm-1:    26.943442    14.548736     9.447396 
Rotational constants in MHz : 807744.057798 436160.125777 283225.793833 

 Dipole components along the rotational axes: 
x,y,z [a.u.] :    -0.000000     0.767564     0.000000 
x,y,z [Debye]:    -0.000001     1.950993     0.000000 

 

                           *** MP2 RELAXED DENSITY ***

------------------------------------------------------------------------------
                       ORCA ELECTRIC PROPERTIES CALCULATION
------------------------------------------------------------------------------

Dipole Moment Calculation                       ... on
Quadrupole Moment Calculation                   ... off
Polarizability Calculation                      ... off
GBWName                                         ... water_MP2_aug-cc-pVTZ_OPT.gbw
Electron density file                           ... water_MP2_aug-cc-pVTZ_OPT.pmp2re
The origin for moment calculation is the CENTER OF MASS  = ( 0.053747,  0.075996  0.000000)

-------------
DIPOLE MOMENT
-------------
                                X             Y             Z
Electronic contribution:     -0.14580      -0.20619       0.00000
Nuclear contribution   :      0.56817       0.80352       0.00000
                        -----------------------------------------
Total Dipole Moment    :      0.42237       0.59733       0.00000
                        -----------------------------------------
Magnitude (a.u.)       :      0.73157
Magnitude (Debye)      :      1.85951



--------------------
Rotational spectrum 
--------------------
 
Rotational constants in cm-1:    26.943442    14.548736     9.447396 
Rotational constants in MHz : 807744.057798 436160.125777 283225.793833 

 Dipole components along the rotational axes: 
x,y,z [a.u.] :    -0.000000     0.731573     0.000000 
x,y,z [Debye]:    -0.000001     1.859511     0.000000 

 

Timings for individual modules:

Sum of individual times         ...       22.097 sec (=   0.368 min)
GTO integral calculation        ...        1.227 sec (=   0.020 min)   5.6 %
SCF iterations                  ...        6.047 sec (=   0.101 min)  27.4 %
MP2 module                      ...       14.018 sec (=   0.234 min)  63.4 %
Geometry relaxation             ...        0.805 sec (=   0.013 min)   3.6 %
                             ****ORCA TERMINATED NORMALLY****
TOTAL RUN TIME: 0 days 0 hours 0 minutes 22 seconds 450 msec
