
                                 *****************
                                 * O   R   C   A *
                                 *****************

           --- An Ab Initio, DFT and Semiempirical electronic structure package ---

                  #######################################################
                  #                        -***-                        #
                  #          Department of theory and spectroscopy      #
                  #               Directorship: Frank Neese             #
                  #        Max Planck Institute fuer Kohlenforschung    #
                  #                Kaiser Wilhelm Platz 1               #
                  #                 D-45470 Muelheim/Ruhr               #
                  #                      Germany                        #
                  #                                                     #
                  #                  All rights reserved                #
                  #                        -***-                        #
                  #######################################################


                         Program Version 4.2.1 -  RELEASE  -


 With contributions from (in alphabetic order):
   Daniel Aravena         : Magnetic Suceptibility
   Michael Atanasov       : Ab Initio Ligand Field Theory (pilot matlab implementation)
   Alexander A. Auer      : GIAO ZORA, VPT2
   Ute Becker             : Parallelization
   Giovanni Bistoni       : ED, misc. LED, open-shell LED, HFLD
   Martin Brehm           : Molecular dynamics
   Dmytro Bykov           : SCF Hessian
   Vijay G. Chilkuri      : MRCI spin determinant printing, contributions to CSF-ICE
   Dipayan Datta          : RHF DLPNO-CCSD density
   Achintya Kumar Dutta   : EOM-CC, STEOM-CC
   Dmitry Ganyushin       : Spin-Orbit,Spin-Spin,Magnetic field MRCI
   Miquel Garcia          : C-PCM Hessian, Gaussian charge scheme
   Yang Guo               : DLPNO-NEVPT2, CIM, IAO-localization
   Andreas Hansen         : Spin unrestricted coupled pair/coupled cluster methods
   Benjamin Helmich-Paris : CASSCF linear response (MC-RPA)
   Lee Huntington         : MR-EOM, pCC
   Robert Izsak           : Overlap fitted RIJCOSX, COSX-SCS-MP3, EOM
   Christian Kollmar      : KDIIS, OOCD, Brueckner-CCSD(T), CCSD density
   Simone Kossmann        : Meta GGA functionals, TD-DFT gradient, OOMP2, MP2 Hessian
   Martin Krupicka        : AUTO-CI
   Lucas Lang             : DCDCAS
   Dagmar Lenk            : GEPOL surface, SMD
   Dimitrios Liakos       : Extrapolation schemes; Compound Job, initial MDCI parallelization
   Dimitrios Manganas     : Further ROCIS development; embedding schemes
   Dimitrios Pantazis     : SARC Basis sets
   Taras Petrenko         : DFT Hessian,TD-DFT gradient, ASA, ECA, R-Raman, ABS, FL, XAS/XES, NRVS
   Peter Pinski           : DLPNO-MP2, DLPNO-MP2 Gradient
   Christoph Reimann      : Effective Core Potentials
   Marius Retegan         : Local ZFS, SOC
   Christoph Riplinger    : Optimizer, TS searches, QM/MM, DLPNO-CCSD(T), (RO)-DLPNO pert. Triples
   Tobias Risthaus        : Range-separated hybrids, TD-DFT gradient, RPA, STAB
   Michael Roemelt        : Original ROCIS implementation
   Masaaki Saitow         : Open-shell DLPNO-CCSD energy and density
   Barbara Sandhoefer     : DKH picture change effects
   Avijit Sen             : IP-ROCIS
   Kantharuban Sivalingam : CASSCF convergence, NEVPT2, FIC-MRCI
   Bernardo de Souza      : ESD, SOC TD-DFT
   Georgi Stoychev        : AutoAux, RI-MP2 NMR
   Willem Van den Heuvel  : Paramagnetic NMR
   Boris Wezisla          : Elementary symmetry handling
   Frank Wennmohs         : Technical directorship


 We gratefully acknowledge several colleagues who have allowed us to
 interface, adapt or use parts of their codes:
   Stefan Grimme, W. Hujo, H. Kruse,             : VdW corrections, initial TS optimization,
                  C. Bannwarth                     DFT functionals, gCP, sTDA/sTD-DF
   Ed Valeev, F. Pavosevic, A. Kumar             : LibInt (2-el integral package), F12 methods
   Garnet Chan, S. Sharma, J. Yang, R. Olivares  : DMRG
   Ulf Ekstrom                                   : XCFun DFT Library
   Mihaly Kallay                                 : mrcc  (arbitrary order and MRCC methods)
   Andreas Klamt, Michael Diedenhofen            : otool_cosmo (COSMO solvation model)
   Jiri Pittner, Ondrej Demel                    : Mk-CCSD
   Frank Weinhold                                : gennbo (NPA and NBO analysis)
   Christopher J. Cramer and Donald G. Truhlar   : smd solvation model
   Lars Goerigk                                  : TD-DFT with DH, B97 family of functionals
   V. Asgeirsson, H. Jonsson                     : NEB implementation
   FAccTs GmbH                                   : IRC, NEB, NEB-TS, Multilevel, MM, QM/MM, CI optimization
   S Lehtola, MJT Oliveira, MAL Marques          : LibXC Library


 Your calculation uses the libint2 library for the computation of 2-el integrals
 For citations please refer to: http://libint.valeyev.net

 Your ORCA version has been built with support for libXC version: 4.2.3
 For citations please refer to: https://tddft.org/programs/libxc/

 This ORCA versions uses:
   CBLAS   interface :  Fast vector & matrix operations
   LAPACKE interface :  Fast linear algebra routines
   SCALAPACK package :  Parallel linear algebra routines




***************************************
The coordinates will be read from file: water_b3lyp_cc-pVDZ.xyz
***************************************


----- Orbital basis set information -----
Your calculation utilizes the basis: cc-pVTZ 
       H, B-Ne : Obtained from the ccRepo (grant-hill.group.shef.ac.uk/ccrepo) Feb. 2017
                 T. H. Dunning, Jr., J. Chem. Phys. 90, 1007 (1989)
            He : Obtained from the ccRepo (grant-hill.group.shef.ac.uk/ccrepo) Feb. 2017
                 D. E. Woon, T. H. Dunning, Jr., J. Chem. Phys. 100, 2975 (1994)
  Li-Be, Na-Mg : Obtained from the ccRepo (grant-hill.group.shef.ac.uk/ccrepo) Feb. 2017
                 B. P. Prascher, D. E. Woon, K. A. Peterson, T. H. Dunning, Jr., A. K. Wilson, Theor. Chem. Acc. 128, 69 (2011)
         Al-Ar : Obtained from the ccRepo (grant-hill.group.shef.ac.uk/ccrepo) Feb. 2017
                 D. E. Woon, T. H. Dunning, Jr., J. Chem. Phys. 98, 1358 (1993)
            Ca : Obtained from the Peterson Research Group Website (tyr0.chem.wsu.edu/~kipeters) Feb. 2017
                 J. Koput, K. A. Peterson, J. Phys. Chem. 106, 9595 (2002)
         Sc-Zn : Obtained from the ccRepo (grant-hill.group.shef.ac.uk/ccrepo) Feb. 2017
                 N. B. Balabanov, K. A. Peterson, J. Chem. Phys. 123, 064107 (2005)
                 N. B. Balabanov, K. A. Peterson, J. Chem. Phys. 125, 074110 (2006)
         Ga-Kr : Obtained from the ccRepo (grant-hill.group.shef.ac.uk/ccrepo) Feb. 2017
                 A. K. Wilson, D. E. Woon, K. A. Peterson, T. H. Dunning, Jr., J. Chem. Phys. 110, 7667 (1999)
             Y : Obtained from the ccRepo (grant-hill.group.shef.ac.uk/ccrepo) Feb. 2017
                 K. A. Peterson, D. Figgen, M. Dolg, H. Stoll, J. Chem. Phys. 126, 124101 (2007)
        Ag, Au : Obtained from the Peterson Research Group Website (tyr0.chem.wsu.edu/~kipeters) Feb. 2017
                 K. A. Peterson, C. Puzzarini, Theor. Chem. Acc. 114, 283 (2005)

================================================================================
                                        WARNINGS
                       Please study these warnings very carefully!
================================================================================


WARNING: Geometry Optimization
  ===> : Switching off AutoStart
         For restart on a previous wavefunction, please use MOREAD

INFO   : the flag for use of LIBINT has been found!

================================================================================
                                       INPUT FILE
================================================================================
NAME = water_b3lyp_cc-pVTZ.inp
|  1> # Water geom opt with B3LYP/cc-pVDZ
|  2> 
|  3> ! B3LYP cc-pVTZ Opt PAL4
|  4> 
|  5> * xyzfile 0 1 water_b3lyp_cc-pVDZ.xyz
|  6> 
|  7>                          ****END OF INPUT****
================================================================================

                       *****************************
                       * Geometry Optimization Run *
                       *****************************

Geometry optimization settings:
Update method            Update   .... BFGS
Choice of coordinates    CoordSys .... Z-matrix Internals
Initial Hessian          InHess   .... Almoef's Model

Convergence Tolerances:
Energy Change            TolE     ....  5.0000e-06 Eh
Max. Gradient            TolMAXG  ....  3.0000e-04 Eh/bohr
RMS Gradient             TolRMSG  ....  1.0000e-04 Eh/bohr
Max. Displacement        TolMAXD  ....  4.0000e-03 bohr
RMS Displacement         TolRMSD  ....  2.0000e-03 bohr
Strict Convergence                ....  False
------------------------------------------------------------------------------
                        ORCA OPTIMIZATION COORDINATE SETUP
------------------------------------------------------------------------------

The optimization will be done in new redundant internal coordinates
Making redundant internal coordinates   ...  (new redundants) done
Evaluating the initial hessian          ...  (Almloef) done
Evaluating the coordinates              ...  done
Calculating the B-matrix                .... done
Calculating the G-matrix                .... done
Diagonalizing the G-matrix              .... done
The first mode is                       ....    0
The number of degrees of freedom        ....    3

    -----------------------------------------------------------------
                    Redundant Internal Coordinates


    -----------------------------------------------------------------
         Definition                    Initial Value    Approx d2E/dq
    -----------------------------------------------------------------
      1. B(H   1,O   0)                  0.9688         0.503381   
      2. B(H   2,O   0)                  0.9689         0.503220   
      3. A(H   1,O   0,H   2)          102.7232         0.318428   
    -----------------------------------------------------------------

Number of atoms                         .... 3
Number of degrees of freedom            .... 3

         *************************************************************
         *                GEOMETRY OPTIMIZATION CYCLE   1            *
         *************************************************************
---------------------------------
CARTESIAN COORDINATES (ANGSTROEM)
---------------------------------
  O     -0.015093   -0.021299    0.000000
  H     -0.283701    0.909539    0.000000
  H      0.952134    0.035710    0.000000

----------------------------
CARTESIAN COORDINATES (A.U.)
----------------------------
  NO LB      ZA    FRAG     MASS         X           Y           Z
   0 O     8.0000    0    15.999   -0.028522   -0.040249    0.000000
   1 H     1.0000    0     1.008   -0.536118    1.718780    0.000000
   2 H     1.0000    0     1.008    1.799273    0.067482    0.000000

--------------------------------
INTERNAL COORDINATES (ANGSTROEM)
--------------------------------
 O      0   0   0     0.000000000000     0.00000000     0.00000000
 H      1   0   0     0.968818835554     0.00000000     0.00000000
 H      1   2   0     0.968905825923   102.72317902     0.00000000

---------------------------
INTERNAL COORDINATES (A.U.)
---------------------------
 O      0   0   0     0.000000000000     0.00000000     0.00000000
 H      1   0   0     1.830802272581     0.00000000     0.00000000
 H      1   2   0     1.830966660556   102.72317902     0.00000000

---------------------
BASIS SET INFORMATION
---------------------
There are 2 groups of distinct atoms

 Group   1 Type O   : 18s5p2d1f contracted to 4s3p2d1f pattern {8811/311/11/1}
 Group   2 Type H   : 5s2p1d contracted to 3s2p1d pattern {311/11/1}

Atom   0O    basis set group =>   1
Atom   1H    basis set group =>   2
Atom   2H    basis set group =>   2


           ************************************************************
           *        Program running with 4 parallel MPI-processes     *
           *              working on a common directory               *
           ************************************************************
------------------------------------------------------------------------------
                           ORCA GTO INTEGRAL CALCULATION
------------------------------------------------------------------------------

                         BASIS SET STATISTICS AND STARTUP INFO

 # of primitive gaussian shells          ...   42
 # of primitive gaussian functions       ...   82
 # of contracted shells                  ...   22
 # of contracted basis functions         ...   58
 Highest angular momentum                ...    3
 Maximum contraction depth               ...    8
 Integral package used                   ... LIBINT
 Integral threshhold            Thresh   ...  2.500e-11
 Primitive cut-off              TCut     ...  2.500e-12


------------------------------ INTEGRAL EVALUATION ----------------------------


 * One electron integrals 
 Pre-screening matrix                    ... done
 Shell pair data                         ... done (   0.000 sec)



           ************************************************************
           *        Program running with 4 parallel MPI-processes     *
           *              working on a common directory               *
           ************************************************************
-------------------------------------------------------------------------------
                                 ORCA SCF
-------------------------------------------------------------------------------

------------
SCF SETTINGS
------------
Hamiltonian:
 Density Functional     Method          .... DFT(GTOs)
 Exchange Functional    Exchange        .... B88
   X-Alpha parameter    XAlpha          ....  0.666667
   Becke's b parameter  XBeta           ....  0.004200
 Correlation Functional Correlation     .... LYP
 LDA part of GGA corr.  LDAOpt          .... VWN-5
 Gradients option       PostSCFGGA      .... off
 Hybrid DFT is turned on
   Fraction HF Exchange ScalHFX         ....  0.200000
   Scaling of DF-GGA-X  ScalDFX         ....  0.720000
   Scaling of DF-GGA-C  ScalDFC         ....  0.810000
   Scaling of DF-LDA-C  ScalLDAC        ....  1.000000
   Perturbative correction              ....  0.000000
   Density functional embedding theory  .... OFF
   NL short-range parameter             ....  4.800000


General Settings:
 Integral files         IntName         .... water_b3lyp_cc-pVTZ
 Hartree-Fock type      HFTyp           .... RHF
 Total Charge           Charge          ....    0
 Multiplicity           Mult            ....    1
 Number of Electrons    NEL             ....   10
 Basis Dimension        Dim             ....   58
 Nuclear Repulsion      ENuc            ....      9.0885697899 Eh

Convergence Acceleration:
 DIIS                   CNVDIIS         .... on
   Start iteration      DIISMaxIt       ....    12
   Startup error        DIISStart       ....  0.200000
   # of expansion vecs  DIISMaxEq       ....     5
   Bias factor          DIISBfac        ....   1.050
   Max. coefficient     DIISMaxC        ....  10.000
 Newton-Raphson         CNVNR           .... off
 SOSCF                  CNVSOSCF        .... on
   Start iteration      SOSCFMaxIt      ....   150
   Startup grad/error   SOSCFStart      ....  0.003300
 Level Shifting         CNVShift        .... on
   Level shift para.    LevelShift      ....    0.2500
   Turn off err/grad.   ShiftErr        ....    0.0010
 Zerner damping         CNVZerner       .... off
 Static damping         CNVDamp         .... on
   Fraction old density DampFac         ....    0.7000
   Max. Damping (<1)    DampMax         ....    0.9800
   Min. Damping (>=0)   DampMin         ....    0.0000
   Turn off err/grad.   DampErr         ....    0.1000
 Fernandez-Rico         CNVRico         .... off

SCF Procedure:
 Maximum # iterations   MaxIter         ....   125
 SCF integral mode      SCFMode         .... Direct
   Integral package                     .... LIBINT
 Reset frequency        DirectResetFreq ....    20
 Integral Threshold     Thresh          ....  2.500e-11 Eh
 Primitive CutOff       TCut            ....  2.500e-12 Eh

Convergence Tolerance:
 Convergence Check Mode ConvCheckMode   .... Total+1el-Energy
 Convergence forced     ConvForced      .... 0
 Energy Change          TolE            ....  1.000e-08 Eh
 1-El. energy change                    ....  1.000e-05 Eh
 Orbital Gradient       TolG            ....  1.000e-05
 Orbital Rotation angle TolX            ....  1.000e-05
 DIIS Error             TolErr          ....  5.000e-07


Diagonalization of the overlap matrix:
Smallest eigenvalue                        ... 2.616e-03
Time for diagonalization                   ...    0.001 sec
Threshold for overlap eigenvalues          ... 1.000e-08
Number of eigenvalues below threshold      ... 0
Time for construction of square roots      ...    0.000 sec
Total time needed                          ...    0.001 sec

-------------------
DFT GRID GENERATION
-------------------

General Integration Accuracy     IntAcc      ...  4.340
Radial Grid Type                 RadialGrid  ... Gauss-Chebyshev
Angular Grid (max. acc.)         AngularGrid ... Lebedev-110
Angular grid pruning method      GridPruning ... 3 (G Style)
Weight generation scheme         WeightScheme... Becke
Basis function cutoff            BFCut       ...    1.0000e-11
Integration weight cutoff        WCut        ...    1.0000e-14
Grids for H and He will be reduced by one unit

# of grid points (after initial pruning)     ...   3304 (   0.0 sec)
# of grid points (after weights+screening)   ...   3267 (   0.0 sec)
nearest neighbour list constructed           ...    0.0 sec
Grid point re-assignment to atoms done       ...    0.0 sec
Grid point division into batches done        ...    0.0 sec
Reduced shell lists constructed in    0.0 sec

Total number of grid points                  ...     3267
Total number of batches                      ...       53
Average number of points per batch           ...       61
Average number of grid points per atom       ...     1089
Average number of shells per batch           ...    20.00 (90.91%)
Average number of basis functions per batch  ...    52.67 (90.80%)
Average number of large shells per batch     ...    19.67 (98.33%)
Average number of large basis fcns per batch ...    51.53 (97.85%)
Maximum spatial batch extension              ...  17.09, 14.29, 25.65 au
Average spatial batch extension              ...   1.54,  1.33,  1.86 au

Time for grid setup =    0.007 sec

------------------------------
INITIAL GUESS: MODEL POTENTIAL
------------------------------
Loading Hartree-Fock densities                     ... done
Calculating cut-offs                               ... done
Setting up the integral package                    ... done
Initializing the effective Hamiltonian             ... done
Starting the Coulomb interaction                   ... done (   0.0 sec)
Reading the grid                                   ... done
Mapping shells                                     ... done
Starting the XC term evaluation                    ... done (   0.0 sec)
  promolecular density results
     # of electrons  =      9.998695287
     EX              =     -8.778671688
     EC              =     -0.334375294
     EX+EC           =     -9.113046982
Transforming the Hamiltonian                       ... done (   0.0 sec)
Diagonalizing the Hamiltonian                      ... done (   0.0 sec)
Back transforming the eigenvectors                 ... done (   0.0 sec)
Now organizing SCF variables                       ... done
                      ------------------
                      INITIAL GUESS DONE (   0.1 sec)
                      ------------------
--------------
SCF ITERATIONS
--------------
ITER       Energy         Delta-E        Max-DP      RMS-DP      [F,P]     Damp
               ***  Starting incremental Fock matrix formation  ***
  0    -76.3184115061   0.000000000000 0.06016286  0.00262512  0.3647327 0.7000
  1    -76.3703323958  -0.051920889710 0.03209595  0.00145840  0.1424118 0.7000
                               ***Turning on DIIS***
  2    -76.3865000436  -0.016167647842 0.02451380  0.00154655  0.0279904 0.0000
  3    -76.4164727106  -0.029972666946 0.02104307  0.00085309  0.0837296 0.0000
  4    -76.4216670506  -0.005194340004 0.00373634  0.00018470  0.0130622 0.0000
                      *** Initiating the SOSCF procedure ***
                           *** Shutting down DIIS ***
                      *** Re-Reading the Fockian *** 
                      *** Removing any level shift *** 
ITER      Energy       Delta-E        Grad      Rot      Max-DP    RMS-DP
  5    -76.42183481  -0.0001677596  0.000615  0.000615  0.000657  0.000041
               *** Restarting incremental Fock matrix formation ***
  6    -76.42183949  -0.0000046769  0.000257  0.000628  0.000511  0.000026
  7    -76.42183976  -0.0000002684  0.000197  0.000119  0.000185  0.000009
  8    -76.42183987  -0.0000001185  0.000065  0.000116  0.000087  0.000006
  9    -76.42183990  -0.0000000310  0.000005  0.000012  0.000010  0.000001
                 **** Energy Check signals convergence ****
              ***Rediagonalizing the Fockian in SOSCF/NRSCF***

               *****************************************************
               *                     SUCCESS                       *
               *           SCF CONVERGED AFTER  10 CYCLES          *
               *****************************************************

Setting up the final grid:

General Integration Accuracy     IntAcc      ...  4.670
Radial Grid Type                 RadialGrid  ... Gauss-Chebyshev
Angular Grid (max. acc.)         AngularGrid ... Lebedev-302
Angular grid pruning method      GridPruning ... 3 (G Style)
Weight generation scheme         WeightScheme... Becke
Basis function cutoff            BFCut       ...    1.0000e-11
Integration weight cutoff        WCut        ...    1.0000e-14
Grids for H and He will be reduced by one unit

# of grid points (after initial pruning)     ...  13000 (   0.0 sec)
# of grid points (after weights+screening)   ...  12884 (   0.0 sec)
nearest neighbour list constructed           ...    0.0 sec
Grid point re-assignment to atoms done       ...    0.0 sec
Grid point division into batches done        ...    0.0 sec
Reduced shell lists constructed in    0.0 sec

Total number of grid points                  ...    12884
Total number of batches                      ...      203
Average number of points per batch           ...       63
Average number of grid points per atom       ...     4295
Average number of shells per batch           ...    18.88 (85.84%)
Average number of basis functions per batch  ...    48.81 (84.15%)
Average number of large shells per batch     ...    17.48 (92.57%)
Average number of large basis fcns per batch ...    45.33 (92.87%)
Maximum spatial batch extension              ...  12.61, 12.74, 16.88 au
Average spatial batch extension              ...   0.85,  0.79,  0.94 au

Final grid set up in    0.1 sec
Final integration                            ... done (   0.0 sec)
Change in XC energy                          ...    -0.000723280
Integrated number of electrons               ...     9.999991073
Previous integrated no of electrons          ...     9.997388132

----------------
TOTAL SCF ENERGY
----------------

Total Energy       :          -76.42256319 Eh           -2079.56367 eV

Components:
Nuclear Repulsion  :            9.08856979 Eh             247.31256 eV
Electronic Energy  :          -85.51113298 Eh           -2326.87622 eV
One Electron Energy:         -122.97351141 Eh           -3346.27937 eV
Two Electron Energy:           37.46237844 Eh            1019.40314 eV

Virial components:
Potential Energy   :         -152.46964211 Eh           -4148.90989 eV
Kinetic Energy     :           76.04707892 Eh            2069.34622 eV
Virial Ratio       :            2.00493752


DFT components:
N(Alpha)           :        4.999995536346 electrons
N(Beta)            :        4.999995536346 electrons
N(Total)           :        9.999991072692 electrons
E(X)               :       -7.115226527516 Eh       
E(C)               :       -0.402010992542 Eh       
E(XC)              :       -7.517237520058 Eh       
DFET-embed. en.    :        0.000000000000 Eh       

---------------
SCF CONVERGENCE
---------------

  Last Energy change         ...   -3.5482e-10  Tolerance :   1.0000e-08
  Last MAX-Density change    ...    1.3174e-06  Tolerance :   1.0000e-07
  Last RMS-Density change    ...    7.8638e-08  Tolerance :   5.0000e-09
  Last Orbital Gradient      ...    2.0191e-06  Tolerance :   1.0000e-05
  Last Orbital Rotation      ...    1.3597e-06  Tolerance :   1.0000e-05

             **** THE GBW FILE WAS UPDATED (water_b3lyp_cc-pVTZ.gbw) ****
             **** DENSITY FILE WAS UPDATED (water_b3lyp_cc-pVTZ.scfp) ****
             **** ENERGY FILE WAS UPDATED (water_b3lyp_cc-pVTZ.en.tmp) ****
             **** THE GBW FILE WAS UPDATED (water_b3lyp_cc-pVTZ.gbw) ****
             **** DENSITY FILE WAS UPDATED (water_b3lyp_cc-pVTZ.scfp) ****
----------------
ORBITAL ENERGIES
----------------

  NO   OCC          E(Eh)            E(eV) 
   0   2.0000     -19.119166      -520.2589 
   1   2.0000      -1.002693       -27.2847 
   2   2.0000      -0.517973       -14.0948 
   3   2.0000      -0.384733       -10.4691 
   4   2.0000      -0.305304        -8.3078 
   5   0.0000       0.024795         0.6747 
   6   0.0000       0.097746         2.6598 
   7   0.0000       0.364026         9.9057 
   8   0.0000       0.418074        11.3764 
   9   0.0000       0.496173        13.5016 
  10   0.0000       0.583274        15.8717 
  11   0.0000       0.616647        16.7798 
  12   0.0000       0.625167        17.0116 
  13   0.0000       0.682010        18.5584 
  14   0.0000       0.770151        20.9569 
  15   0.0000       0.936159        25.4742 
  16   0.0000       1.010235        27.4899 
  17   0.0000       1.277504        34.7627 
  18   0.0000       1.305264        35.5180 
  19   0.0000       1.772526        48.2329 
  20   0.0000       1.783806        48.5398 
  21   0.0000       1.821435        49.5638 
  22   0.0000       1.892099        51.4866 
  23   0.0000       1.962065        53.3905 
  24   0.0000       2.240606        60.9700 
  25   0.0000       2.609739        71.0146 
  26   0.0000       3.040278        82.7302 
  27   0.0000       3.179908        86.5297 
  28   0.0000       3.277628        89.1888 
  29   0.0000       3.352441        91.2245 
  30   0.0000       3.367403        91.6317 
  31   0.0000       3.520255        95.7910 
  32   0.0000       3.584189        97.5307 
  33   0.0000       3.644612        99.1749 
  34   0.0000       3.687448       100.3406 
  35   0.0000       3.703141       100.7676 
  36   0.0000       3.775253       102.7299 
  37   0.0000       3.976833       108.2151 
  38   0.0000       4.003872       108.9509 
  39   0.0000       4.237760       115.3153 
  40   0.0000       4.269984       116.1922 
  41   0.0000       4.506257       122.6215 
  42   0.0000       4.726781       128.6222 
  43   0.0000       4.818068       131.1063 
  44   0.0000       5.076022       138.1256 
  45   0.0000       5.593247       152.2000 
  46   0.0000       6.091607       165.7611 
  47   0.0000       6.383092       173.6928 
  48   0.0000       6.399850       174.1488 
  49   0.0000       6.483169       176.4160 
  50   0.0000       6.522594       177.4888 
  51   0.0000       6.527917       177.6336 
  52   0.0000       6.673385       181.5920 
  53   0.0000       6.760074       183.9510 
  54   0.0000       6.943224       188.9347 
  55   0.0000       7.279062       198.0733 
  56   0.0000       7.729266       210.3240 
  57   0.0000      11.987545       326.1977 

                    ********************************
                    * MULLIKEN POPULATION ANALYSIS *
                    ********************************

-----------------------
MULLIKEN ATOMIC CHARGES
-----------------------
   0 O :   -0.428266
   1 H :    0.215412
   2 H :    0.212854
Sum of atomic charges:    0.0000000

--------------------------------
MULLIKEN REDUCED ORBITAL CHARGES
--------------------------------
  0 O s       :     3.754525  s :     3.754525
      pz      :     1.915892  p :     4.657512
      px      :     1.312996
      py      :     1.428625
      dz2     :     0.003991  d :     0.015611
      dxz     :     0.000647
      dyz     :     0.001309
      dx2y2   :     0.008059
      dxy     :     0.001604
      f0      :     0.000101  f :     0.000618
      f+1     :     0.000204
      f-1     :     0.000198
      f+2     :     0.000001
      f-2     :     0.000006
      f+3     :     0.000135
      f-3     :    -0.000028
  1 H s       :     0.687321  s :     0.687321
      pz      :     0.037754  p :     0.089795
      px      :     0.020518
      py      :     0.031523
      dz2     :     0.000669  d :     0.007472
      dxz     :     0.000336
      dyz     :     0.002675
      dx2y2   :     0.002336
      dxy     :     0.001456
  2 H s       :     0.688204  s :     0.688204
      pz      :     0.038246  p :     0.091360
      px      :     0.027351
      py      :     0.025764
      dz2     :     0.000691  d :     0.007582
      dxz     :     0.003036
      dyz     :    -0.000003
      dx2y2   :     0.001750
      dxy     :     0.002107


                     *******************************
                     * LOEWDIN POPULATION ANALYSIS *
                     *******************************

----------------------
LOEWDIN ATOMIC CHARGES
----------------------
   0 O :    0.355314
   1 H :   -0.177601
   2 H :   -0.177713

-------------------------------
LOEWDIN REDUCED ORBITAL CHARGES
-------------------------------
  0 O s       :     3.188833  s :     3.188833
      pz      :     1.694809  p :     4.417382
      px      :     1.315184
      py      :     1.407388
      dz2     :     0.006309  d :     0.035207
      dxz     :     0.000193
      dyz     :     0.000386
      dx2y2   :     0.023122
      dxy     :     0.005197
      f0      :     0.000401  f :     0.003265
      f+1     :     0.000318
      f-1     :     0.000236
      f+2     :     0.000003
      f-2     :     0.000029
      f+3     :     0.001317
      f-3     :     0.000962
  1 H s       :     0.720039  s :     0.720039
      pz      :     0.116190  p :     0.361764
      px      :     0.075398
      py      :     0.170176
      dz2     :     0.007666  d :     0.095797
      dxz     :     0.003039
      dyz     :     0.032733
      dx2y2   :     0.029510
      dxy     :     0.022849
  2 H s       :     0.720043  s :     0.720043
      pz      :     0.116483  p :     0.361956
      px      :     0.161022
      py      :     0.084452
      dz2     :     0.007676  d :     0.095714
      dxz     :     0.035663
      dyz     :     0.000071
      dx2y2   :     0.023396
      dxy     :     0.028909


                      *****************************
                      * MAYER POPULATION ANALYSIS *
                      *****************************

  NA   - Mulliken gross atomic population
  ZA   - Total nuclear charge
  QA   - Mulliken gross atomic charge
  VA   - Mayer's total valence
  BVA  - Mayer's bonded valence
  FA   - Mayer's free valence

  ATOM       NA         ZA         QA         VA         BVA        FA
  0 O      8.4283     8.0000    -0.4283     2.0520     2.0520     0.0000
  1 H      0.7846     1.0000     0.2154     1.0376     1.0376     0.0000
  2 H      0.7871     1.0000     0.2129     1.0418     1.0418     0.0000

  Mayer bond orders larger than 0.100000
B(  0-O ,  1-H ) :   1.0239 B(  0-O ,  2-H ) :   1.0281 

-------
TIMINGS
-------

Total SCF time: 0 days 0 hours 0 min 1 sec 

Total time                  ....       1.545 sec
Sum of individual times     ....       1.386 sec  ( 89.7%)

Fock matrix formation       ....       1.239 sec  ( 80.2%)
  XC integration            ....       0.054 sec  (  4.4% of F)
    Basis function eval.    ....       0.013 sec  ( 24.7% of XC)
    Density eval.           ....       0.007 sec  ( 13.4% of XC)
    XC-Functional eval.     ....       0.006 sec  ( 10.3% of XC)
    XC-Potential eval.      ....       0.013 sec  ( 23.1% of XC)
Diagonalization             ....       0.002 sec  (  0.1%)
Density matrix formation    ....       0.000 sec  (  0.0%)
Population analysis         ....       0.001 sec  (  0.1%)
Initial guess               ....       0.083 sec  (  5.4%)
Orbital Transformation      ....       0.000 sec  (  0.0%)
Orbital Orthonormalization  ....       0.000 sec  (  0.0%)
DIIS solution               ....       0.001 sec  (  0.0%)
SOSCF solution              ....       0.001 sec  (  0.1%)
Grid generation             ....       0.058 sec  (  3.8%)

-------------------------   --------------------
FINAL SINGLE POINT ENERGY       -76.422563185733
-------------------------   --------------------



           ************************************************************
           *        Program running with 4 parallel MPI-processes     *
           *              working on a common directory               *
           ************************************************************
------------------------------------------------------------------------------
                         ORCA SCF GRADIENT CALCULATION
------------------------------------------------------------------------------

Gradient of the Kohn-Sham DFT energy:
Kohn-Sham wavefunction type      ... RKS
Hartree-Fock exchange scaling    ...    0.200
Number of operators              ...    1
Number of atoms                  ...    3
Basis set dimensions             ...   58
Integral neglect threshold       ... 2.5e-11
Integral primitive cutoff        ... 2.5e-12

Nuclear repulsion gradient       ... done
One Electron Gradient            ... done
Pre-screening matrix             ... done
Starting the two electron gradient:
Two electron gradient done
Exchange-correlation gradient    ... done

------------------
CARTESIAN GRADIENT
------------------

   1   O   :   -0.006533122   -0.009176283   -0.000000000
   2   H   :    0.000501992    0.006427924    0.000000000
   3   H   :    0.006031130    0.002748359    0.000000000

Difference to translation invariance:
           :    0.0000000000    0.0000000000   -0.0000000000

Norm of the cartesian gradient     ...    0.0145734025
RMS gradient                       ...    0.0048578008
MAX gradient                       ...    0.0091762829

-------
TIMINGS
-------

Total SCF gradient time            ...        0.335 sec

One electron gradient       ....       0.002 sec  (  0.7%)
Prescreening matrices       ....       0.021 sec  (  6.4%)
Two electron gradient       ....       0.145 sec  ( 43.3%)
XC gradient                 ....       0.051 sec  ( 15.2%)
------------------------------------------------------------------------------
                         ORCA GEOMETRY RELAXATION STEP
------------------------------------------------------------------------------

Reading the OPT-File                    .... done
Getting information on internals        .... done
Copying old internal coords+grads       .... done
Making the new internal coordinates     .... (new redundants).... done
Validating the new internal coordinates .... (new redundants).... done
Calculating the B-matrix                .... done
Calculating the G,G- and P matrices     .... done
Transforming gradient to internals      .... done
Projecting the internal gradient        .... done
Number of atoms                         ....   3
Number of internal coordinates          ....   3
Current Energy                          ....   -76.422563186 Eh
Current gradient norm                   ....     0.014573403 Eh/bohr
Maximum allowed component of the step   ....  0.300
Current trust radius                    ....  0.300
Evaluating the initial hessian          ....  (Almloef) done
Projecting the Hessian                  .... done
Forming the augmented Hessian           .... done
Diagonalizing the augmented Hessian     .... done
Last element of RFO vector              ....  0.999763477
Lowest eigenvalues of augmented Hessian:
 -0.000205224  0.318484445  0.503266207
Length of the computed step             ....  0.021753475
The final length of the internal step   ....  0.021753475
Converting the step to cartesian space:
 Initial RMS(Int)=    0.0125593749
Transforming coordinates:
 Iter   0:  RMS(Cart)=    0.0047435633 RMS(Int)=    0.0125645781
 Iter   1:  RMS(Cart)=    0.0000404776 RMS(Int)=    0.0000617826
 Iter   2:  RMS(Cart)=    0.0000002806 RMS(Int)=    0.0000004761
 Iter   3:  RMS(Cart)=    0.0000000007 RMS(Int)=    0.0000000019
done
Storing new coordinates                 .... done

                                .--------------------.
          ----------------------|Geometry convergence|-------------------------
          Item                value                   Tolerance       Converged
          ---------------------------------------------------------------------
          RMS gradient        0.0055618719            0.0001000000      NO
          MAX gradient        0.0061550509            0.0003000000      NO
          RMS step            0.0125593749            0.0020000000      NO
          MAX step            0.0133688048            0.0040000000      NO
          ........................................................
          Max(Bonds)      0.0065      Max(Angles)    0.77
          Max(Dihed)        0.00      Max(Improp)    0.00
          ---------------------------------------------------------------------

The optimization has not yet converged - more geometry cycles are needed


    ---------------------------------------------------------------------------
                         Redundant Internal Coordinates
                            (Angstroem and degrees)

        Definition                    Value    dE/dq     Step     New-Value
    ----------------------------------------------------------------------------
     1. B(H   1,O   0)                0.9688  0.006064 -0.0064    0.9624   
     2. B(H   2,O   0)                0.9689  0.006155 -0.0065    0.9624   
     3. A(H   1,O   0,H   2)          102.72 -0.004260    0.77    103.49   
    ----------------------------------------------------------------------------

         *************************************************************
         *                GEOMETRY OPTIMIZATION CYCLE   2            *
         *************************************************************
---------------------------------
CARTESIAN COORDINATES (ANGSTROEM)
---------------------------------
  O     -0.011582   -0.016394    0.000000
  H     -0.284620    0.906511    0.000000
  H      0.949542    0.033833    0.000000

----------------------------
CARTESIAN COORDINATES (A.U.)
----------------------------
  NO LB      ZA    FRAG     MASS         X           Y           Z
   0 O     8.0000    0    15.999   -0.021888   -0.030980    0.000000
   1 H     1.0000    0     1.008   -0.537853    1.713058    0.000000
   2 H     1.0000    0     1.008    1.794374    0.063934    0.000000

--------------------------------
INTERNAL COORDINATES (ANGSTROEM)
--------------------------------
 O      0   0   0     0.000000000000     0.00000000     0.00000000
 H      1   0   0     0.962446580907     0.00000000     0.00000000
 H      1   2   0     0.962435924887   103.48915512     0.00000000

---------------------------
INTERNAL COORDINATES (A.U.)
---------------------------
 O      0   0   0     0.000000000000     0.00000000     0.00000000
 H      1   0   0     1.818760456444     0.00000000     0.00000000
 H      1   2   0     1.818740319484   103.48915512     0.00000000



           ************************************************************
           *        Program running with 4 parallel MPI-processes     *
           *              working on a common directory               *
           ************************************************************


           ************************************************************
           *        Program running with 4 parallel MPI-processes     *
           *              working on a common directory               *
           ************************************************************

Diagonalization of the overlap matrix:
Smallest eigenvalue                        ... 2.550e-03
Time for diagonalization                   ...    0.001 sec
Threshold for overlap eigenvalues          ... 1.000e-08
Number of eigenvalues below threshold      ... 0
Time for construction of square roots      ...    0.000 sec
Total time needed                          ...    0.001 sec

-------------------
DFT GRID GENERATION
-------------------

General Integration Accuracy     IntAcc      ...  4.340
Radial Grid Type                 RadialGrid  ... Gauss-Chebyshev
Angular Grid (max. acc.)         AngularGrid ... Lebedev-110
Angular grid pruning method      GridPruning ... 3 (G Style)
Weight generation scheme         WeightScheme... Becke
Basis function cutoff            BFCut       ...    1.0000e-11
Integration weight cutoff        WCut        ...    1.0000e-14
Grids for H and He will be reduced by one unit

# of grid points (after initial pruning)     ...   3304 (   0.0 sec)
# of grid points (after weights+screening)   ...   3267 (   0.0 sec)
nearest neighbour list constructed           ...    0.0 sec
Grid point re-assignment to atoms done       ...    0.0 sec
Grid point division into batches done        ...    0.0 sec
Reduced shell lists constructed in    0.0 sec

Total number of grid points                  ...     3267
Total number of batches                      ...       53
Average number of points per batch           ...       61
Average number of grid points per atom       ...     1089
Average number of shells per batch           ...    20.00 (90.91%)
Average number of basis functions per batch  ...    52.67 (90.80%)
Average number of large shells per batch     ...    19.67 (98.33%)
Average number of large basis fcns per batch ...    51.53 (97.85%)
Maximum spatial batch extension              ...  17.09, 14.29, 25.65 au
Average spatial batch extension              ...   1.55,  1.30,  1.87 au

Time for grid setup =    0.006 sec

--------------
SCF ITERATIONS
--------------
ITER       Energy         Delta-E        Max-DP      RMS-DP      [F,P]     Damp
               ***  Starting incremental Fock matrix formation  ***
                      *** Initiating the SOSCF procedure ***
                      *** Re-Reading the Fockian *** 
                      *** Removing any level shift *** 
ITER      Energy       Delta-E        Grad      Rot      Max-DP    RMS-DP
  0    -76.42193194 -76.4219319362  0.002216  0.002216  0.002321  0.000116
               *** Restarting incremental Fock matrix formation ***
  1    -76.42196214  -0.0000302039  0.001067  0.001199  0.001786  0.000080
  2    -76.42196045   0.0000016865  0.001327  0.000586  0.000817  0.000037
  3    -76.42196720  -0.0000067473  0.000049  0.000044  0.000038  0.000003
  4    -76.42196721  -0.0000000132  0.000021  0.000010  0.000018  0.000001
                 **** Energy Check signals convergence ****
              ***Rediagonalizing the Fockian in SOSCF/NRSCF***

               *****************************************************
               *                     SUCCESS                       *
               *           SCF CONVERGED AFTER   5 CYCLES          *
               *****************************************************

Setting up the final grid:

General Integration Accuracy     IntAcc      ...  4.670
Radial Grid Type                 RadialGrid  ... Gauss-Chebyshev
Angular Grid (max. acc.)         AngularGrid ... Lebedev-302
Angular grid pruning method      GridPruning ... 3 (G Style)
Weight generation scheme         WeightScheme... Becke
Basis function cutoff            BFCut       ...    1.0000e-11
Integration weight cutoff        WCut        ...    1.0000e-14
Grids for H and He will be reduced by one unit

# of grid points (after initial pruning)     ...  13000 (   0.0 sec)
# of grid points (after weights+screening)   ...  12881 (   0.0 sec)
nearest neighbour list constructed           ...    0.0 sec
Grid point re-assignment to atoms done       ...    0.0 sec
Grid point division into batches done        ...    0.0 sec
Reduced shell lists constructed in    0.0 sec

Total number of grid points                  ...    12881
Total number of batches                      ...      203
Average number of points per batch           ...       63
Average number of grid points per atom       ...     4294
Average number of shells per batch           ...    18.94 (86.10%)
Average number of basis functions per batch  ...    48.90 (84.32%)
Average number of large shells per batch     ...    17.65 (93.20%)
Average number of large basis fcns per batch ...    45.85 (93.75%)
Maximum spatial batch extension              ...  12.60, 12.73, 16.88 au
Average spatial batch extension              ...   0.85,  0.79,  0.94 au

Final grid set up in    0.0 sec
Final integration                            ... done (   0.0 sec)
Change in XC energy                          ...    -0.000721120
Integrated number of electrons               ...     9.999991639
Previous integrated no of electrons          ...     9.997486640
Total Energy       :          -76.42268834 Eh           -2079.56707 eV
  Last Energy change         ...   -2.3018e-09  Tolerance :   1.0000e-08
  Last MAX-Density change    ...    8.0728e-07  Tolerance :   1.0000e-07
             **** THE GBW FILE WAS UPDATED (water_b3lyp_cc-pVTZ.gbw) ****
             **** DENSITY FILE WAS UPDATED (water_b3lyp_cc-pVTZ.scfp) ****
             **** ENERGY FILE WAS UPDATED (water_b3lyp_cc-pVTZ.en.tmp) ****
             **** THE GBW FILE WAS UPDATED (water_b3lyp_cc-pVTZ.gbw) ****
             **** DENSITY FILE WAS UPDATED (water_b3lyp_cc-pVTZ.scfp) ****
Total SCF time: 0 days 0 hours 0 min 0 sec 

-------------------------   --------------------
FINAL SINGLE POINT ENERGY       -76.422688336433
-------------------------   --------------------



           ************************************************************
           *        Program running with 4 parallel MPI-processes     *
           *              working on a common directory               *
           ************************************************************
------------------------------------------------------------------------------
                         ORCA SCF GRADIENT CALCULATION
------------------------------------------------------------------------------

Gradient of the Kohn-Sham DFT energy:
Kohn-Sham wavefunction type      ... RKS
Hartree-Fock exchange scaling    ...    0.200
Number of operators              ...    1
Number of atoms                  ...    3
Basis set dimensions             ...   58
Integral neglect threshold       ... 2.5e-11
Integral primitive cutoff        ... 2.5e-12

Nuclear repulsion gradient       ... done
One Electron Gradient            ... done
Pre-screening matrix             ... done
Starting the two electron gradient:
Two electron gradient done
Exchange-correlation gradient    ... done

------------------
CARTESIAN GRADIENT
------------------

   1   O   :   -0.001605257   -0.002328772   -0.000000000
   2   H   :    0.001358797    0.000687994    0.000000000
   3   H   :    0.000246460    0.001640778    0.000000000

Difference to translation invariance:
           :   -0.0000000000   -0.0000000000    0.0000000000

Norm of the cartesian gradient     ...    0.0036156040
RMS gradient                       ...    0.0012052013
MAX gradient                       ...    0.0023287722

-------
TIMINGS
-------

Total SCF gradient time            ...        0.230 sec

One electron gradient       ....       0.001 sec  (  0.5%)
Prescreening matrices       ....       0.011 sec  (  4.7%)
Two electron gradient       ....       0.081 sec  ( 35.2%)
XC gradient                 ....       0.033 sec  ( 14.4%)
------------------------------------------------------------------------------
                         ORCA GEOMETRY RELAXATION STEP
------------------------------------------------------------------------------

Reading the OPT-File                    .... done
Getting information on internals        .... done
Copying old internal coords+grads       .... done
Making the new internal coordinates     .... (new redundants).... done
Validating the new internal coordinates .... (new redundants).... done
Calculating the B-matrix                .... done
Calculating the G,G- and P matrices     .... done
Transforming gradient to internals      .... done
Projecting the internal gradient        .... done
Number of atoms                         ....   3
Number of internal coordinates          ....   3
Current Energy                          ....   -76.422688336 Eh
Current gradient norm                   ....     0.003615604 Eh/bohr
Maximum allowed component of the step   ....  0.300
Current trust radius                    ....  0.300
Updating the Hessian (BFGS)             .... done
Forming the augmented Hessian           .... done
Diagonalizing the augmented Hessian     .... done
Last element of RFO vector              ....  0.999908552
Lowest eigenvalues of augmented Hessian:
 -0.000038687  0.210478254  0.503301836
Length of the computed step             ....  0.013524851
The final length of the internal step   ....  0.013524851
Converting the step to cartesian space:
 Initial RMS(Int)=    0.0078085765
Transforming coordinates:
 Iter   0:  RMS(Cart)=    0.0039463997 RMS(Int)=    0.0078101527
 Iter   1:  RMS(Cart)=    0.0000191892 RMS(Int)=    0.0000334409
 Iter   2:  RMS(Cart)=    0.0000000756 RMS(Int)=    0.0000001715
done
Storing new coordinates                 .... done

                                .--------------------.
          ----------------------|Geometry convergence|-------------------------
          Item                value                   Tolerance       Converged
          ---------------------------------------------------------------------
          Energy change      -0.0001251507            0.0000050000      NO
          RMS gradient        0.0016586531            0.0001000000      NO
          MAX gradient        0.0028407340            0.0003000000      NO
          RMS step            0.0078085765            0.0020000000      NO
          MAX step            0.0131284553            0.0040000000      NO
          ........................................................
          Max(Bonds)      0.0012      Max(Angles)    0.75
          Max(Dihed)        0.00      Max(Improp)    0.00
          ---------------------------------------------------------------------

The optimization has not yet converged - more geometry cycles are needed


    ---------------------------------------------------------------------------
                         Redundant Internal Coordinates
                            (Angstroem and degrees)

        Definition                    Value    dE/dq     Step     New-Value
    ----------------------------------------------------------------------------
     1. B(H   1,O   0)                0.9624  0.000302 -0.0012    0.9612   
     2. B(H   2,O   0)                0.9624  0.000304 -0.0012    0.9612   
     3. A(H   1,O   0,H   2)          103.49 -0.002841    0.75    104.24   
    ----------------------------------------------------------------------------

         *************************************************************
         *                GEOMETRY OPTIMIZATION CYCLE   3            *
         *************************************************************
---------------------------------
CARTESIAN COORDINATES (ANGSTROEM)
---------------------------------
  O     -0.009376   -0.013283    0.000000
  H     -0.288118    0.906652    0.000000
  H      0.950835    0.030581    0.000000

----------------------------
CARTESIAN COORDINATES (A.U.)
----------------------------
  NO LB      ZA    FRAG     MASS         X           Y           Z
   0 O     8.0000    0    15.999   -0.017719   -0.025101    0.000000
   1 H     1.0000    0     1.008   -0.544465    1.713325    0.000000
   2 H     1.0000    0     1.008    1.796817    0.057789    0.000000

--------------------------------
INTERNAL COORDINATES (ANGSTROEM)
--------------------------------
 O      0   0   0     0.000000000000     0.00000000     0.00000000
 H      1   0   0     0.961237883262     0.00000000     0.00000000
 H      1   2   0     0.961212148345   104.24136014     0.00000000

---------------------------
INTERNAL COORDINATES (A.U.)
---------------------------
 O      0   0   0     0.000000000000     0.00000000     0.00000000
 H      1   0   0     1.816476348915     0.00000000     0.00000000
 H      1   2   0     1.816427716970   104.24136014     0.00000000



           ************************************************************
           *        Program running with 4 parallel MPI-processes     *
           *              working on a common directory               *
           ************************************************************


           ************************************************************
           *        Program running with 4 parallel MPI-processes     *
           *              working on a common directory               *
           ************************************************************

Diagonalization of the overlap matrix:
Smallest eigenvalue                        ... 2.532e-03
Time for diagonalization                   ...    0.001 sec
Threshold for overlap eigenvalues          ... 1.000e-08
Number of eigenvalues below threshold      ... 0
Time for construction of square roots      ...    0.000 sec
Total time needed                          ...    0.001 sec

-------------------
DFT GRID GENERATION
-------------------

General Integration Accuracy     IntAcc      ...  4.340
Radial Grid Type                 RadialGrid  ... Gauss-Chebyshev
Angular Grid (max. acc.)         AngularGrid ... Lebedev-110
Angular grid pruning method      GridPruning ... 3 (G Style)
Weight generation scheme         WeightScheme... Becke
Basis function cutoff            BFCut       ...    1.0000e-11
Integration weight cutoff        WCut        ...    1.0000e-14
Grids for H and He will be reduced by one unit

# of grid points (after initial pruning)     ...   3304 (   0.0 sec)
# of grid points (after weights+screening)   ...   3267 (   0.0 sec)
nearest neighbour list constructed           ...    0.0 sec
Grid point re-assignment to atoms done       ...    0.0 sec
Grid point division into batches done        ...    0.0 sec
Reduced shell lists constructed in    0.0 sec

Total number of grid points                  ...     3267
Total number of batches                      ...       53
Average number of points per batch           ...       61
Average number of grid points per atom       ...     1089
Average number of shells per batch           ...    20.00 (90.91%)
Average number of basis functions per batch  ...    52.67 (90.80%)
Average number of large shells per batch     ...    19.67 (98.33%)
Average number of large basis fcns per batch ...    51.53 (97.85%)
Maximum spatial batch extension              ...  17.09, 14.29, 25.65 au
Average spatial batch extension              ...   1.55,  1.30,  1.87 au

Time for grid setup =    0.006 sec

--------------
SCF ITERATIONS
--------------
ITER       Energy         Delta-E        Max-DP      RMS-DP      [F,P]     Damp
               ***  Starting incremental Fock matrix formation  ***
                      *** Initiating the SOSCF procedure ***
                      *** Re-Reading the Fockian *** 
                      *** Removing any level shift *** 
ITER      Energy       Delta-E        Grad      Rot      Max-DP    RMS-DP
  0    -76.42198470 -76.4219847010  0.000986  0.000986  0.001388  0.000064
               *** Restarting incremental Fock matrix formation ***
  1    -76.42199247  -0.0000077686  0.000293  0.000329  0.000535  0.000035
  2    -76.42199267  -0.0000001993  0.000344  0.000193  0.000313  0.000013
  3    -76.42199312  -0.0000004496  0.000036  0.000056  0.000125  0.000006
  4    -76.42199313  -0.0000000128  0.000006  0.000007  0.000017  0.000001
                 **** Energy Check signals convergence ****
              ***Rediagonalizing the Fockian in SOSCF/NRSCF***

               *****************************************************
               *                     SUCCESS                       *
               *           SCF CONVERGED AFTER   5 CYCLES          *
               *****************************************************

Setting up the final grid:

General Integration Accuracy     IntAcc      ...  4.670
Radial Grid Type                 RadialGrid  ... Gauss-Chebyshev
Angular Grid (max. acc.)         AngularGrid ... Lebedev-302
Angular grid pruning method      GridPruning ... 3 (G Style)
Weight generation scheme         WeightScheme... Becke
Basis function cutoff            BFCut       ...    1.0000e-11
Integration weight cutoff        WCut        ...    1.0000e-14
Grids for H and He will be reduced by one unit

# of grid points (after initial pruning)     ...  13000 (   0.0 sec)
# of grid points (after weights+screening)   ...  12881 (   0.0 sec)
nearest neighbour list constructed           ...    0.0 sec
Grid point re-assignment to atoms done       ...    0.0 sec
Grid point division into batches done        ...    0.0 sec
Reduced shell lists constructed in    0.0 sec

Total number of grid points                  ...    12881
Total number of batches                      ...      203
Average number of points per batch           ...       63
Average number of grid points per atom       ...     4294
Average number of shells per batch           ...    18.94 (86.10%)
Average number of basis functions per batch  ...    48.90 (84.32%)
Average number of large shells per batch     ...    17.60 (92.89%)
Average number of large basis fcns per batch ...    45.67 (93.39%)
Maximum spatial batch extension              ...  12.59, 12.71, 16.88 au
Average spatial batch extension              ...   0.84,  0.78,  0.92 au

Final grid set up in    0.0 sec
Final integration                            ... done (   0.0 sec)
Change in XC energy                          ...    -0.000718552
Integrated number of electrons               ...     9.999992025
Previous integrated no of electrons          ...     9.997527191
Total Energy       :          -76.42271168 Eh           -2079.56771 eV
  Last Energy change         ...   -3.7237e-10  Tolerance :   1.0000e-08
  Last MAX-Density change    ...    9.7567e-07  Tolerance :   1.0000e-07
             **** THE GBW FILE WAS UPDATED (water_b3lyp_cc-pVTZ.gbw) ****
             **** DENSITY FILE WAS UPDATED (water_b3lyp_cc-pVTZ.scfp) ****
             **** ENERGY FILE WAS UPDATED (water_b3lyp_cc-pVTZ.en.tmp) ****
             **** THE GBW FILE WAS UPDATED (water_b3lyp_cc-pVTZ.gbw) ****
             **** DENSITY FILE WAS UPDATED (water_b3lyp_cc-pVTZ.scfp) ****
Total SCF time: 0 days 0 hours 0 min 0 sec 

-------------------------   --------------------
FINAL SINGLE POINT ENERGY       -76.422711683293
-------------------------   --------------------



           ************************************************************
           *        Program running with 4 parallel MPI-processes     *
           *              working on a common directory               *
           ************************************************************
------------------------------------------------------------------------------
                         ORCA SCF GRADIENT CALCULATION
------------------------------------------------------------------------------

Gradient of the Kohn-Sham DFT energy:
Kohn-Sham wavefunction type      ... RKS
Hartree-Fock exchange scaling    ...    0.200
Number of operators              ...    1
Number of atoms                  ...    3
Basis set dimensions             ...   58
Integral neglect threshold       ... 2.5e-11
Integral primitive cutoff        ... 2.5e-12

Nuclear repulsion gradient       ... done
One Electron Gradient            ... done
Pre-screening matrix             ... done
Starting the two electron gradient:
Two electron gradient done
Exchange-correlation gradient    ... done

------------------
CARTESIAN GRADIENT
------------------

   1   O   :   -0.000041306   -0.000140350   -0.000000000
   2   H   :    0.000537940   -0.000376031    0.000000000
   3   H   :   -0.000496634    0.000516381    0.000000000

Difference to translation invariance:
           :   -0.0000000000   -0.0000000000    0.0000000000

Norm of the cartesian gradient     ...    0.0009825870
RMS gradient                       ...    0.0003275290
MAX gradient                       ...    0.0005379398

-------
TIMINGS
-------

Total SCF gradient time            ...        0.238 sec

One electron gradient       ....       0.001 sec  (  0.5%)
Prescreening matrices       ....       0.011 sec  (  4.6%)
Two electron gradient       ....       0.079 sec  ( 33.4%)
XC gradient                 ....       0.033 sec  ( 14.1%)
------------------------------------------------------------------------------
                         ORCA GEOMETRY RELAXATION STEP
------------------------------------------------------------------------------

Reading the OPT-File                    .... done
Getting information on internals        .... done
Copying old internal coords+grads       .... done
Making the new internal coordinates     .... (new redundants).... done
Validating the new internal coordinates .... (new redundants).... done
Calculating the B-matrix                .... done
Calculating the G,G- and P matrices     .... done
Transforming gradient to internals      .... done
Projecting the internal gradient        .... done
Number of atoms                         ....   3
Number of internal coordinates          ....   3
Current Energy                          ....   -76.422711683 Eh
Current gradient norm                   ....     0.000982587 Eh/bohr
Maximum allowed component of the step   ....  0.300
Current trust radius                    ....  0.300
Updating the Hessian (BFGS)             .... done
Forming the augmented Hessian           .... done
Diagonalizing the augmented Hessian     .... done
Last element of RFO vector              ....  0.999987762
Lowest eigenvalues of augmented Hessian:
 -0.000004663  0.157687777  0.503302317
Length of the computed step             ....  0.004947422
The final length of the internal step   ....  0.004947422
Converting the step to cartesian space:
 Initial RMS(Int)=    0.0028563956
Transforming coordinates:
 Iter   0:  RMS(Cart)=    0.0017055401 RMS(Int)=    0.0028562684
 Iter   1:  RMS(Cart)=    0.0000020571 RMS(Int)=    0.0000045152
 Iter   2:  RMS(Cart)=    0.0000000054 RMS(Int)=    0.0000000086
done
Storing new coordinates                 .... done

                                .--------------------.
          ----------------------|Geometry convergence|-------------------------
          Item                value                   Tolerance       Converged
          ---------------------------------------------------------------------
          Energy change      -0.0000233469            0.0000050000      NO
          RMS gradient        0.0006387781            0.0001000000      NO
          MAX gradient        0.0008576299            0.0003000000      NO
          RMS step            0.0028563956            0.0020000000      NO
          MAX step            0.0049039337            0.0040000000      NO
          ........................................................
          Max(Bonds)      0.0003      Max(Angles)    0.28
          Max(Dihed)        0.00      Max(Improp)    0.00
          ---------------------------------------------------------------------

The optimization has not yet converged - more geometry cycles are needed


    ---------------------------------------------------------------------------
                         Redundant Internal Coordinates
                            (Angstroem and degrees)

        Definition                    Value    dE/dq     Step     New-Value
    ----------------------------------------------------------------------------
     1. B(H   1,O   0)                0.9612 -0.000487  0.0002    0.9615   
     2. B(H   2,O   0)                0.9612 -0.000501  0.0003    0.9615   
     3. A(H   1,O   0,H   2)          104.24 -0.000858    0.28    104.52   
    ----------------------------------------------------------------------------

         *************************************************************
         *                GEOMETRY OPTIMIZATION CYCLE   4            *
         *************************************************************
---------------------------------
CARTESIAN COORDINATES (ANGSTROEM)
---------------------------------
  O     -0.008721   -0.012348    0.000000
  H     -0.289785    0.907130    0.000000
  H      0.951846    0.029169    0.000000

----------------------------
CARTESIAN COORDINATES (A.U.)
----------------------------
  NO LB      ZA    FRAG     MASS         X           Y           Z
   0 O     8.0000    0    15.999   -0.016480   -0.023335    0.000000
   1 H     1.0000    0     1.008   -0.547614    1.714226    0.000000
   2 H     1.0000    0     1.008    1.798728    0.055121    0.000000

--------------------------------
INTERNAL COORDINATES (ANGSTROEM)
--------------------------------
 O      0   0   0     0.000000000000     0.00000000     0.00000000
 H      1   0   0     0.961476256174     0.00000000     0.00000000
 H      1   2   0     0.961463442313   104.52233484     0.00000000

---------------------------
INTERNAL COORDINATES (A.U.)
---------------------------
 O      0   0   0     0.000000000000     0.00000000     0.00000000
 H      1   0   0     1.816926808437     0.00000000     0.00000000
 H      1   2   0     1.816902593748   104.52233484     0.00000000



           ************************************************************
           *        Program running with 4 parallel MPI-processes     *
           *              working on a common directory               *
           ************************************************************


           ************************************************************
           *        Program running with 4 parallel MPI-processes     *
           *              working on a common directory               *
           ************************************************************

Diagonalization of the overlap matrix:
Smallest eigenvalue                        ... 2.532e-03
Time for diagonalization                   ...    0.001 sec
Threshold for overlap eigenvalues          ... 1.000e-08
Number of eigenvalues below threshold      ... 0
Time for construction of square roots      ...    0.000 sec
Total time needed                          ...    0.001 sec

-------------------
DFT GRID GENERATION
-------------------

General Integration Accuracy     IntAcc      ...  4.340
Radial Grid Type                 RadialGrid  ... Gauss-Chebyshev
Angular Grid (max. acc.)         AngularGrid ... Lebedev-110
Angular grid pruning method      GridPruning ... 3 (G Style)
Weight generation scheme         WeightScheme... Becke
Basis function cutoff            BFCut       ...    1.0000e-11
Integration weight cutoff        WCut        ...    1.0000e-14
Grids for H and He will be reduced by one unit

# of grid points (after initial pruning)     ...   3304 (   0.0 sec)
# of grid points (after weights+screening)   ...   3267 (   0.0 sec)
nearest neighbour list constructed           ...    0.0 sec
Grid point re-assignment to atoms done       ...    0.0 sec
Grid point division into batches done        ...    0.0 sec
Reduced shell lists constructed in    0.0 sec

Total number of grid points                  ...     3267
Total number of batches                      ...       53
Average number of points per batch           ...       61
Average number of grid points per atom       ...     1089
Average number of shells per batch           ...    20.00 (90.91%)
Average number of basis functions per batch  ...    52.67 (90.80%)
Average number of large shells per batch     ...    19.67 (98.33%)
Average number of large basis fcns per batch ...    51.53 (97.85%)
Maximum spatial batch extension              ...  17.09, 14.29, 25.65 au
Average spatial batch extension              ...   1.55,  1.30,  1.87 au

Time for grid setup =    0.006 sec

--------------
SCF ITERATIONS
--------------
ITER       Energy         Delta-E        Max-DP      RMS-DP      [F,P]     Damp
               ***  Starting incremental Fock matrix formation  ***
                      *** Initiating the SOSCF procedure ***
                      *** Re-Reading the Fockian *** 
                      *** Removing any level shift *** 
ITER      Energy       Delta-E        Grad      Rot      Max-DP    RMS-DP
  0    -76.42199555 -76.4219955470  0.000415  0.000415  0.000390  0.000021
               *** Restarting incremental Fock matrix formation ***
  1    -76.42199638  -0.0000008304  0.000062  0.000077  0.000195  0.000010
  2    -76.42199641  -0.0000000351  0.000004  0.000006  0.000026  0.000001
                  ***Gradient check signals convergence***
              ***Rediagonalizing the Fockian in SOSCF/NRSCF***

               *****************************************************
               *                     SUCCESS                       *
               *           SCF CONVERGED AFTER   3 CYCLES          *
               *****************************************************

Setting up the final grid:

General Integration Accuracy     IntAcc      ...  4.670
Radial Grid Type                 RadialGrid  ... Gauss-Chebyshev
Angular Grid (max. acc.)         AngularGrid ... Lebedev-302
Angular grid pruning method      GridPruning ... 3 (G Style)
Weight generation scheme         WeightScheme... Becke
Basis function cutoff            BFCut       ...    1.0000e-11
Integration weight cutoff        WCut        ...    1.0000e-14
Grids for H and He will be reduced by one unit

# of grid points (after initial pruning)     ...  13000 (   0.0 sec)
# of grid points (after weights+screening)   ...  12881 (   0.0 sec)
nearest neighbour list constructed           ...    0.0 sec
Grid point re-assignment to atoms done       ...    0.0 sec
Grid point division into batches done        ...    0.0 sec
Reduced shell lists constructed in    0.0 sec

Total number of grid points                  ...    12881
Total number of batches                      ...      203
Average number of points per batch           ...       63
Average number of grid points per atom       ...     4294
Average number of shells per batch           ...    18.94 (86.10%)
Average number of basis functions per batch  ...    48.90 (84.32%)
Average number of large shells per batch     ...    17.63 (93.10%)
Average number of large basis fcns per batch ...    45.75 (93.55%)
Maximum spatial batch extension              ...  12.58, 12.71, 16.88 au
Average spatial batch extension              ...   0.83,  0.80,  0.92 au

Final grid set up in    0.0 sec
Final integration                            ... done (   0.0 sec)
Change in XC energy                          ...    -0.000717581
Integrated number of electrons               ...     9.999992154
Previous integrated no of electrons          ...     9.997534614
Total Energy       :          -76.42271399 Eh           -2079.56777 eV
  Last Energy change         ...   -2.5371e-10  Tolerance :   1.0000e-08
  Last MAX-Density change    ...    3.2580e-06  Tolerance :   1.0000e-07
             **** THE GBW FILE WAS UPDATED (water_b3lyp_cc-pVTZ.gbw) ****
             **** DENSITY FILE WAS UPDATED (water_b3lyp_cc-pVTZ.scfp) ****
             **** ENERGY FILE WAS UPDATED (water_b3lyp_cc-pVTZ.en.tmp) ****
             **** THE GBW FILE WAS UPDATED (water_b3lyp_cc-pVTZ.gbw) ****
             **** DENSITY FILE WAS UPDATED (water_b3lyp_cc-pVTZ.scfp) ****
Total SCF time: 0 days 0 hours 0 min 0 sec 

-------------------------   --------------------
FINAL SINGLE POINT ENERGY       -76.422713994156
-------------------------   --------------------



           ************************************************************
           *        Program running with 4 parallel MPI-processes     *
           *              working on a common directory               *
           ************************************************************
------------------------------------------------------------------------------
                         ORCA SCF GRADIENT CALCULATION
------------------------------------------------------------------------------

Gradient of the Kohn-Sham DFT energy:
Kohn-Sham wavefunction type      ... RKS
Hartree-Fock exchange scaling    ...    0.200
Number of operators              ...    1
Number of atoms                  ...    3
Basis set dimensions             ...   58
Integral neglect threshold       ... 2.5e-11
Integral primitive cutoff        ... 2.5e-12

Nuclear repulsion gradient       ... done
One Electron Gradient            ... done
Pre-screening matrix             ... done
Starting the two electron gradient:
Two electron gradient done
Exchange-correlation gradient    ... done

------------------
CARTESIAN GRADIENT
------------------

   1   O   :    0.000079260    0.000045728   -0.000000000
   2   H   :   -0.000006513   -0.000132612    0.000000000
   3   H   :   -0.000072746    0.000086885    0.000000000

Difference to translation invariance:
           :    0.0000000000    0.0000000000   -0.0000000000

Norm of the cartesian gradient     ...    0.0001970853
RMS gradient                       ...    0.0000656951
MAX gradient                       ...    0.0001326125

-------
TIMINGS
-------

Total SCF gradient time            ...        0.224 sec

One electron gradient       ....       0.001 sec  (  0.5%)
Prescreening matrices       ....       0.011 sec  (  4.9%)
Two electron gradient       ....       0.079 sec  ( 35.4%)
XC gradient                 ....       0.033 sec  ( 14.8%)
------------------------------------------------------------------------------
                         ORCA GEOMETRY RELAXATION STEP
------------------------------------------------------------------------------

Reading the OPT-File                    .... done
Getting information on internals        .... done
Copying old internal coords+grads       .... done
Making the new internal coordinates     .... (new redundants).... done
Validating the new internal coordinates .... (new redundants).... done
Calculating the B-matrix                .... done
Calculating the G,G- and P matrices     .... done
Transforming gradient to internals      .... done
Projecting the internal gradient        .... done
Number of atoms                         ....   3
Number of internal coordinates          ....   3
Current Energy                          ....   -76.422713994 Eh
Current gradient norm                   ....     0.000197085 Eh/bohr
Maximum allowed component of the step   ....  0.300
Current trust radius                    ....  0.300
Updating the Hessian (BFGS)             .... done
Forming the augmented Hessian           .... done
Diagonalizing the augmented Hessian     .... done
Last element of RFO vector              ....  0.999999954
Lowest eigenvalues of augmented Hessian:
 -0.000000039  0.157660160  0.503301897
Length of the computed step             ....  0.000302139
The final length of the internal step   ....  0.000302139
Converting the step to cartesian space:
 Initial RMS(Int)=    0.0001744398
Transforming coordinates:
 Iter   0:  RMS(Cart)=    0.0001126794 RMS(Int)=    0.0001744387
 Iter   1:  RMS(Cart)=    0.0000000051 RMS(Int)=    0.0000000125
done
Storing new coordinates                 .... done

                                .--------------------.
          ----------------------|Geometry convergence|-------------------------
          Item                value                   Tolerance       Converged
          ---------------------------------------------------------------------
          Energy change      -0.0000023109            0.0000050000      YES
          RMS gradient        0.0000825777            0.0001000000      YES
          MAX gradient        0.0000979456            0.0003000000      YES
          RMS step            0.0001744398            0.0020000000      YES
          MAX step            0.0001980105            0.0040000000      YES
          ........................................................
          Max(Bonds)      0.0001      Max(Angles)    0.01
          Max(Dihed)        0.00      Max(Improp)    0.00
          ---------------------------------------------------------------------

                    ***********************HURRAY********************
                    ***        THE OPTIMIZATION HAS CONVERGED     ***
                    *************************************************


    ---------------------------------------------------------------------------
                         Redundant Internal Coordinates

                          --- Optimized Parameters ---  
                            (Angstroem and degrees)

        Definition                    OldVal   dE/dq     Step     FinalVal
    ----------------------------------------------------------------------------
     1. B(H   1,O   0)                0.9615 -0.000096  0.0001    0.9616   
     2. B(H   2,O   0)                0.9615 -0.000098  0.0001    0.9615   
     3. A(H   1,O   0,H   2)          104.52 -0.000041    0.01    104.53   
    ----------------------------------------------------------------------------
                 *******************************************************
                 *** FINAL ENERGY EVALUATION AT THE STATIONARY POINT ***
                 ***               (AFTER    4 CYCLES)               ***
                 *******************************************************
---------------------------------
CARTESIAN COORDINATES (ANGSTROEM)
---------------------------------
  O     -0.008713   -0.012335    0.000000
  H     -0.289892    0.907195    0.000000
  H      0.951944    0.029090    0.000000

----------------------------
CARTESIAN COORDINATES (A.U.)
----------------------------
  NO LB      ZA    FRAG     MASS         X           Y           Z
   0 O     8.0000    0    15.999   -0.016465   -0.023311    0.000000
   1 H     1.0000    0     1.008   -0.547816    1.714351    0.000000
   2 H     1.0000    0     1.008    1.798914    0.054972    0.000000

--------------------------------
INTERNAL COORDINATES (ANGSTROEM)
--------------------------------
 O      0   0   0     0.000000000000     0.00000000     0.00000000
 H      1   0   0     0.961560626585     0.00000000     0.00000000
 H      1   2   0     0.961549844882   104.53368001     0.00000000

---------------------------
INTERNAL COORDINATES (A.U.)
---------------------------
 O      0   0   0     0.000000000000     0.00000000     0.00000000
 H      1   0   0     1.817086245408     0.00000000     0.00000000
 H      1   2   0     1.817065870941   104.53368001     0.00000000

---------------------
BASIS SET INFORMATION
---------------------
There are 2 groups of distinct atoms

 Group   1 Type O   : 18s5p2d1f contracted to 4s3p2d1f pattern {8811/311/11/1}
[...]
   Scaling of DF-GGA-C  ScalDFC         ....  0.810000
   Scaling of DF-LDA-C  ScalLDAC        ....  1.000000
   Perturbative correction              ....  0.000000
   Density functional embedding theory  .... OFF
   NL short-range parameter             ....  4.800000


General Settings:
 Integral files         IntName         .... water_b3lyp_cc-pVTZ
 Hartree-Fock type      HFTyp           .... RHF
 Total Charge           Charge          ....    0
 Multiplicity           Mult            ....    1
 Number of Electrons    NEL             ....   10
 Basis Dimension        Dim             ....   58
 Nuclear Repulsion      ENuc            ....      9.1532853003 Eh

Convergence Acceleration:
 DIIS                   CNVDIIS         .... on
   Start iteration      DIISMaxIt       ....    12
   Startup error        DIISStart       ....  0.200000
   # of expansion vecs  DIISMaxEq       ....     5
   Bias factor          DIISBfac        ....   1.050
   Max. coefficient     DIISMaxC        ....  10.000
 Newton-Raphson         CNVNR           .... off
 SOSCF                  CNVSOSCF        .... on
   Start iteration      SOSCFMaxIt      ....   150
   Startup grad/error   SOSCFStart      ....  0.003300
 Level Shifting         CNVShift        .... on
   Level shift para.    LevelShift      ....    0.2500
   Turn off err/grad.   ShiftErr        ....    0.0010
 Zerner damping         CNVZerner       .... off
 Static damping         CNVDamp         .... on
   Fraction old density DampFac         ....    0.7000
   Max. Damping (<1)    DampMax         ....    0.9800
   Min. Damping (>=0)   DampMin         ....    0.0000
   Turn off err/grad.   DampErr         ....    0.1000
 Fernandez-Rico         CNVRico         .... off

SCF Procedure:
 Maximum # iterations   MaxIter         ....   125
 SCF integral mode      SCFMode         .... Direct
   Integral package                     .... LIBINT
 Reset frequency        DirectResetFreq ....    20
 Integral Threshold     Thresh          ....  2.500e-11 Eh
 Primitive CutOff       TCut            ....  2.500e-12 Eh

Convergence Tolerance:
 Convergence Check Mode ConvCheckMode   .... Total+1el-Energy
 Convergence forced     ConvForced      .... 0
 Energy Change          TolE            ....  1.000e-08 Eh
 1-El. energy change                    ....  1.000e-05 Eh
 Orbital Gradient       TolG            ....  1.000e-05
 Orbital Rotation angle TolX            ....  1.000e-05
 DIIS Error             TolErr          ....  5.000e-07


Diagonalization of the overlap matrix:
Smallest eigenvalue                        ... 2.532e-03
Time for diagonalization                   ...    0.001 sec
Threshold for overlap eigenvalues          ... 1.000e-08
Number of eigenvalues below threshold      ... 0
Time for construction of square roots      ...    0.000 sec
Total time needed                          ...    0.001 sec

---------------------
INITIAL GUESS: MOREAD
---------------------
Guess MOs are being read from file: water_b3lyp_cc-pVTZ.gbw
Input Geometry matches current geometry (good)
Input basis set matches current basis set (good)
MOs were renormalized
MOs were reorthogonalized (Cholesky)
                      ------------------
                      INITIAL GUESS DONE (   0.0 sec)
                      ------------------
-------------------
DFT GRID GENERATION
-------------------

General Integration Accuracy     IntAcc      ...  4.340
Radial Grid Type                 RadialGrid  ... Gauss-Chebyshev
Angular Grid (max. acc.)         AngularGrid ... Lebedev-110
Angular grid pruning method      GridPruning ... 3 (G Style)
Weight generation scheme         WeightScheme... Becke
Basis function cutoff            BFCut       ...    1.0000e-11
Integration weight cutoff        WCut        ...    1.0000e-14
Grids for H and He will be reduced by one unit

# of grid points (after initial pruning)     ...   3304 (   0.0 sec)
# of grid points (after weights+screening)   ...   3267 (   0.0 sec)
nearest neighbour list constructed           ...    0.0 sec
Grid point re-assignment to atoms done       ...    0.0 sec
Grid point division into batches done        ...    0.0 sec
Reduced shell lists constructed in    0.0 sec

Total number of grid points                  ...     3267
Total number of batches                      ...       53
Average number of points per batch           ...       61
Average number of grid points per atom       ...     1089
Average number of shells per batch           ...    20.00 (90.91%)
Average number of basis functions per batch  ...    52.67 (90.80%)
Average number of large shells per batch     ...    19.67 (98.33%)
Average number of large basis fcns per batch ...    51.53 (97.85%)
Maximum spatial batch extension              ...  17.09, 14.29, 25.65 au
Average spatial batch extension              ...   1.55,  1.30,  1.87 au

Time for grid setup =    0.006 sec

--------------
SCF ITERATIONS
--------------
ITER       Energy         Delta-E        Max-DP      RMS-DP      [F,P]     Damp
               ***  Starting incremental Fock matrix formation  ***
                      *** Initiating the SOSCF procedure ***
                      *** Re-Reading the Fockian *** 
                      *** Removing any level shift *** 
ITER      Energy       Delta-E        Grad      Rot      Max-DP    RMS-DP
  0    -76.42199647 -76.4219964657  0.000031  0.000031  0.000015  0.000001
               *** Restarting incremental Fock matrix formation ***
  1    -76.42199647  -0.0000000038  0.000009  0.000010  0.000014  0.000001
  2    -76.42199647   0.0000000001  0.000011  0.000005  0.000007  0.000000
                 **** Energy Check signals convergence ****
              ***Rediagonalizing the Fockian in SOSCF/NRSCF***

               *****************************************************
               *                     SUCCESS                       *
               *           SCF CONVERGED AFTER   3 CYCLES          *
               *****************************************************

Setting up the final grid:

General Integration Accuracy     IntAcc      ...  4.670
Radial Grid Type                 RadialGrid  ... Gauss-Chebyshev
Angular Grid (max. acc.)         AngularGrid ... Lebedev-302
Angular grid pruning method      GridPruning ... 3 (G Style)
Weight generation scheme         WeightScheme... Becke
Basis function cutoff            BFCut       ...    1.0000e-11
Integration weight cutoff        WCut        ...    1.0000e-14
Grids for H and He will be reduced by one unit

# of grid points (after initial pruning)     ...  13000 (   0.0 sec)
# of grid points (after weights+screening)   ...  12881 (   0.0 sec)
nearest neighbour list constructed           ...    0.0 sec
Grid point re-assignment to atoms done       ...    0.0 sec
Grid point division into batches done        ...    0.0 sec
Reduced shell lists constructed in    0.0 sec

Total number of grid points                  ...    12881
Total number of batches                      ...      203
Average number of points per batch           ...       63
Average number of grid points per atom       ...     4294
Average number of shells per batch           ...    18.94 (86.10%)
Average number of basis functions per batch  ...    48.90 (84.32%)
Average number of large shells per batch     ...    17.63 (93.10%)
Average number of large basis fcns per batch ...    45.75 (93.55%)
Maximum spatial batch extension              ...  12.58, 12.71, 16.88 au
Average spatial batch extension              ...   0.83,  0.80,  0.91 au

Final grid set up in    0.1 sec
Final integration                            ... done (   0.0 sec)
Change in XC energy                          ...    -0.000717539
Integrated number of electrons               ...     9.999992157
Previous integrated no of electrons          ...     9.997534073

----------------
TOTAL SCF ENERGY
----------------

Total Energy       :          -76.42271401 Eh           -2079.56777 eV

Components:
Nuclear Repulsion  :            9.15328530 Eh             249.07356 eV
Electronic Energy  :          -85.57599931 Eh           -2328.64133 eV
One Electron Energy:         -123.09329429 Eh           -3349.53882 eV
Two Electron Energy:           37.51729498 Eh            1020.89750 eV

Virial components:
Potential Energy   :         -152.49296009 Eh           -4149.54440 eV
Kinetic Energy     :           76.07024608 Eh            2069.97663 eV
Virial Ratio       :            2.00463345


DFT components:
N(Alpha)           :        4.999996078747 electrons
N(Beta)            :        4.999996078747 electrons
N(Total)           :        9.999992157494 electrons
E(X)               :       -7.120408362861 Eh       
E(C)               :       -0.402280634902 Eh       
E(XC)              :       -7.522688997763 Eh       
DFET-embed. en.    :        0.000000000000 Eh       

---------------
SCF CONVERGENCE
---------------

  Last Energy change         ...   -4.3772e-10  Tolerance :   1.0000e-08
  Last MAX-Density change    ...    3.0680e-07  Tolerance :   1.0000e-07
  Last RMS-Density change    ...    2.4026e-08  Tolerance :   5.0000e-09
  Last Orbital Gradient      ...    5.2895e-07  Tolerance :   1.0000e-05
  Last Orbital Rotation      ...    4.5656e-07  Tolerance :   1.0000e-05

             **** THE GBW FILE WAS UPDATED (water_b3lyp_cc-pVTZ.gbw) ****
             **** DENSITY FILE WAS UPDATED (water_b3lyp_cc-pVTZ.scfp) ****
             **** ENERGY FILE WAS UPDATED (water_b3lyp_cc-pVTZ.en.tmp) ****
             **** THE GBW FILE WAS UPDATED (water_b3lyp_cc-pVTZ.gbw) ****
             **** DENSITY FILE WAS UPDATED (water_b3lyp_cc-pVTZ.scfp) ****
----------------
ORBITAL ENERGIES
----------------

  NO   OCC          E(Eh)            E(eV) 
   0   2.0000     -19.117231      -520.2063 
   1   2.0000      -1.004492       -27.3336 
   2   2.0000      -0.523941       -14.2572 
   3   2.0000      -0.381867       -10.3911 
   4   2.0000      -0.305440        -8.3114 
   5   0.0000       0.026462         0.7201 
   6   0.0000       0.099099         2.6966 
   7   0.0000       0.369801        10.0628 
   8   0.0000       0.416808        11.3419 
   9   0.0000       0.495690        13.4884 
  10   0.0000       0.583892        15.8885 
  11   0.0000       0.623300        16.9608 
  12   0.0000       0.627266        17.0688 
  13   0.0000       0.679763        18.4973 
  14   0.0000       0.777857        21.1666 
  15   0.0000       0.929305        25.2877 
  16   0.0000       1.009505        27.4700 
  17   0.0000       1.286884        35.0179 
  18   0.0000       1.312343        35.7107 
  19   0.0000       1.767834        48.1052 
  20   0.0000       1.790599        48.7247 
  21   0.0000       1.812729        49.3269 
  22   0.0000       1.892280        51.4916 
  23   0.0000       1.961605        53.3780 
  24   0.0000       2.252042        61.2812 
  25   0.0000       2.610787        71.0431 
  26   0.0000       3.055533        83.1453 
  27   0.0000       3.192346        86.8681 
  28   0.0000       3.267952        88.9255 
  29   0.0000       3.352244        91.2192 
  30   0.0000       3.376315        91.8742 
  31   0.0000       3.526243        95.9540 
  32   0.0000       3.582448        97.4834 
  33   0.0000       3.645509        99.1993 
  34   0.0000       3.690360       100.4198 
  35   0.0000       3.714078       101.0652 
  36   0.0000       3.784555       102.9830 
  37   0.0000       3.994091       108.6847 
  38   0.0000       4.026973       109.5795 
  39   0.0000       4.236642       115.2849 
  40   0.0000       4.280888       116.4889 
  41   0.0000       4.508255       122.6759 
  42   0.0000       4.740657       128.9998 
  43   0.0000       4.825588       131.3109 
  44   0.0000       5.085859       138.3933 
  45   0.0000       5.600120       152.3870 
  46   0.0000       6.099673       165.9806 
  47   0.0000       6.406469       174.3289 
  48   0.0000       6.415408       174.5721 
  49   0.0000       6.500540       176.8887 
  50   0.0000       6.533093       177.7745 
  51   0.0000       6.582017       179.1058 
  52   0.0000       6.658160       181.1777 
  53   0.0000       6.771997       184.2754 
  54   0.0000       6.955659       189.2731 
  55   0.0000       7.292138       198.4292 
  56   0.0000       7.747970       210.8330 
  57   0.0000      12.112874       329.6081 

                    ********************************
                    * MULLIKEN POPULATION ANALYSIS *
                    ********************************

-----------------------
MULLIKEN ATOMIC CHARGES
-----------------------
   0 O :   -0.427054
   1 H :    0.214863
   2 H :    0.212191
Sum of atomic charges:   -0.0000000

--------------------------------
MULLIKEN REDUCED ORBITAL CHARGES
--------------------------------
  0 O s       :     3.746783  s :     3.746783
      pz      :     1.915183  p :     4.664471
      px      :     1.313511
      py      :     1.435778
      dz2     :     0.003972  d :     0.015168
      dxz     :     0.000641
      dyz     :     0.001296
      dx2y2   :     0.007763
      dxy     :     0.001496
      f0      :     0.000102  f :     0.000631
      f+1     :     0.000202
      f-1     :     0.000195
      f+2     :     0.000001
      f-2     :     0.000008
      f+3     :     0.000151
      f-3     :    -0.000028
  1 H s       :     0.686986  s :     0.686986
      pz      :     0.038051  p :     0.090553
      px      :     0.020453
      py      :     0.032048
      dz2     :     0.000669  d :     0.007598
      dxz     :     0.000369
      dyz     :     0.002698
      dx2y2   :     0.002393
      dxy     :     0.001469
  2 H s       :     0.687791  s :     0.687791
      pz      :     0.038566  p :     0.092310
      px      :     0.027943
      py      :     0.025801
      dz2     :     0.000692  d :     0.007708
      dxz     :     0.003088
      dyz     :    -0.000002
      dx2y2   :     0.001813
      dxy     :     0.002118


                     *******************************
                     * LOEWDIN POPULATION ANALYSIS *
                     *******************************

----------------------
LOEWDIN ATOMIC CHARGES
----------------------
   0 O :    0.372084
   1 H :   -0.185926
   2 H :   -0.186158

-------------------------------
LOEWDIN REDUCED ORBITAL CHARGES
-------------------------------
  0 O s       :     3.176552  s :     3.176552
      pz      :     1.687750  p :     4.412314
      px      :     1.314899
      py      :     1.409665
      dz2     :     0.006237  d :     0.035785
      dxz     :     0.000196
      dyz     :     0.000391
      dx2y2   :     0.023302
      dxy     :     0.005659
      f0      :     0.000423  f :     0.003265
      f+1     :     0.000332
      f-1     :     0.000239
      f+2     :     0.000004
      f-2     :     0.000039
      f+3     :     0.001322
      f-3     :     0.000906
  1 H s       :     0.721293  s :     0.721293
      pz      :     0.118613  p :     0.366689
      px      :     0.076361
      py      :     0.171715
      dz2     :     0.007709  d :     0.097944
      dxz     :     0.003473
      dyz     :     0.033354
      dx2y2   :     0.030080
      dxy     :     0.023327
  2 H s       :     0.721300  s :     0.721300
      pz      :     0.118954  p :     0.366966
      px      :     0.162896
      py      :     0.085116
      dz2     :     0.007720  d :     0.097893
      dxz     :     0.036773
      dyz     :     0.000029
      dx2y2   :     0.023823
      dxy     :     0.029548


                      *****************************
                      * MAYER POPULATION ANALYSIS *
                      *****************************

  NA   - Mulliken gross atomic population
  ZA   - Total nuclear charge
  QA   - Mulliken gross atomic charge
  VA   - Mayer's total valence
  BVA  - Mayer's bonded valence
  FA   - Mayer's free valence

  ATOM       NA         ZA         QA         VA         BVA        FA
  0 O      8.4271     8.0000    -0.4271     2.0537     2.0537    -0.0000
  1 H      0.7851     1.0000     0.2149     1.0387     1.0387     0.0000
  2 H      0.7878     1.0000     0.2122     1.0433     1.0433    -0.0000

  Mayer bond orders larger than 0.100000
B(  0-O ,  1-H ) :   1.0245 B(  0-O ,  2-H ) :   1.0291 

-------
TIMINGS
-------

Total SCF time: 0 days 0 hours 0 min 0 sec 

Total time                  ....       0.745 sec
Sum of individual times     ....       0.580 sec  ( 77.8%)

Fock matrix formation       ....       0.519 sec  ( 69.6%)
  XC integration            ....       0.035 sec  (  6.8% of F)
    Basis function eval.    ....       0.010 sec  ( 29.5% of XC)
    Density eval.           ....       0.005 sec  ( 15.5% of XC)
    XC-Functional eval.     ....       0.004 sec  ( 11.7% of XC)
    XC-Potential eval.      ....       0.010 sec  ( 28.0% of XC)
Diagonalization             ....       0.001 sec  (  0.1%)
Density matrix formation    ....       0.000 sec  (  0.0%)
Population analysis         ....       0.001 sec  (  0.1%)
Initial guess               ....       0.001 sec  (  0.1%)
Orbital Transformation      ....       0.000 sec  (  0.0%)
Orbital Orthonormalization  ....       0.000 sec  (  0.0%)
DIIS solution               ....       0.000 sec  (  0.0%)
SOSCF solution              ....       0.001 sec  (  0.1%)
Grid generation             ....       0.058 sec  (  7.7%)

-------------------------   --------------------
FINAL SINGLE POINT ENERGY       -76.422714009007
-------------------------   --------------------

                                *** OPTIMIZATION RUN DONE ***

                            ***************************************
                            *     ORCA property calculations      *
                            ***************************************

                                    ---------------------
                                    Active property flags
                                    ---------------------
   (+) Dipole Moment


------------------------------------------------------------------------------
                       ORCA ELECTRIC PROPERTIES CALCULATION
------------------------------------------------------------------------------

Dipole Moment Calculation                       ... on
Quadrupole Moment Calculation                   ... off
Polarizability Calculation                      ... off
GBWName                                         ... water_b3lyp_cc-pVTZ.gbw
Electron density file                           ... water_b3lyp_cc-pVTZ.scfp
The origin for moment calculation is the CENTER OF MASS  = ( 0.055381,  0.078298  0.000000)

-------------
DIPOLE MOMENT
-------------
                                X             Y             Z
Electronic contribution:     -0.12994      -0.18555       0.00000
Nuclear contribution   :      0.56557       0.79986       0.00000
                        -----------------------------------------
Total Dipole Moment    :      0.43563       0.61431       0.00000
                        -----------------------------------------
Magnitude (a.u.)       :      0.75310
Magnitude (Debye)      :      1.91422



--------------------
Rotational spectrum 
--------------------
 
Rotational constants in cm-1:    27.190549    14.459333     9.439576 
Rotational constants in MHz : 815152.143935 433479.906730 282991.354527 

 Dipole components along the rotational axes: 
x,y,z [a.u.] :    -0.001005     0.753095     0.000000 
x,y,z [Debye]:    -0.002554     1.914215     0.000000 

 

Timings for individual modules:

Sum of individual times         ...        8.399 sec (=   0.140 min)
GTO integral calculation        ...        1.595 sec (=   0.027 min)  19.0 %
SCF iterations                  ...        5.246 sec (=   0.087 min)  62.5 %
SCF Gradient evaluation         ...        1.492 sec (=   0.025 min)  17.8 %
Geometry relaxation             ...        0.066 sec (=   0.001 min)   0.8 %
                             ****ORCA TERMINATED NORMALLY****
TOTAL RUN TIME: 0 days 0 hours 0 minutes 8 seconds 602 msec
