
                                 *****************
                                 * O   R   C   A *
                                 *****************

           --- An Ab Initio, DFT and Semiempirical electronic structure package ---

                  #######################################################
                  #                        -***-                        #
                  #          Department of theory and spectroscopy      #
                  #               Directorship: Frank Neese             #
                  #        Max Planck Institute fuer Kohlenforschung    #
                  #                Kaiser Wilhelm Platz 1               #
                  #                 D-45470 Muelheim/Ruhr               #
                  #                      Germany                        #
                  #                                                     #
                  #                  All rights reserved                #
                  #                        -***-                        #
                  #######################################################


                         Program Version 4.2.1 -  RELEASE  -


 With contributions from (in alphabetic order):
   Daniel Aravena         : Magnetic Suceptibility
   Michael Atanasov       : Ab Initio Ligand Field Theory (pilot matlab implementation)
   Alexander A. Auer      : GIAO ZORA, VPT2
   Ute Becker             : Parallelization
   Giovanni Bistoni       : ED, misc. LED, open-shell LED, HFLD
   Martin Brehm           : Molecular dynamics
   Dmytro Bykov           : SCF Hessian
   Vijay G. Chilkuri      : MRCI spin determinant printing, contributions to CSF-ICE
   Dipayan Datta          : RHF DLPNO-CCSD density
   Achintya Kumar Dutta   : EOM-CC, STEOM-CC
   Dmitry Ganyushin       : Spin-Orbit,Spin-Spin,Magnetic field MRCI
   Miquel Garcia          : C-PCM Hessian, Gaussian charge scheme
   Yang Guo               : DLPNO-NEVPT2, CIM, IAO-localization
   Andreas Hansen         : Spin unrestricted coupled pair/coupled cluster methods
   Benjamin Helmich-Paris : CASSCF linear response (MC-RPA)
   Lee Huntington         : MR-EOM, pCC
   Robert Izsak           : Overlap fitted RIJCOSX, COSX-SCS-MP3, EOM
   Christian Kollmar      : KDIIS, OOCD, Brueckner-CCSD(T), CCSD density
   Simone Kossmann        : Meta GGA functionals, TD-DFT gradient, OOMP2, MP2 Hessian
   Martin Krupicka        : AUTO-CI
   Lucas Lang             : DCDCAS
   Dagmar Lenk            : GEPOL surface, SMD
   Dimitrios Liakos       : Extrapolation schemes; Compound Job, initial MDCI parallelization
   Dimitrios Manganas     : Further ROCIS development; embedding schemes
   Dimitrios Pantazis     : SARC Basis sets
   Taras Petrenko         : DFT Hessian,TD-DFT gradient, ASA, ECA, R-Raman, ABS, FL, XAS/XES, NRVS
   Peter Pinski           : DLPNO-MP2, DLPNO-MP2 Gradient
   Christoph Reimann      : Effective Core Potentials
   Marius Retegan         : Local ZFS, SOC
   Christoph Riplinger    : Optimizer, TS searches, QM/MM, DLPNO-CCSD(T), (RO)-DLPNO pert. Triples
   Tobias Risthaus        : Range-separated hybrids, TD-DFT gradient, RPA, STAB
   Michael Roemelt        : Original ROCIS implementation
   Masaaki Saitow         : Open-shell DLPNO-CCSD energy and density
   Barbara Sandhoefer     : DKH picture change effects
   Avijit Sen             : IP-ROCIS
   Kantharuban Sivalingam : CASSCF convergence, NEVPT2, FIC-MRCI
   Bernardo de Souza      : ESD, SOC TD-DFT
   Georgi Stoychev        : AutoAux, RI-MP2 NMR
   Willem Van den Heuvel  : Paramagnetic NMR
   Boris Wezisla          : Elementary symmetry handling
   Frank Wennmohs         : Technical directorship


 We gratefully acknowledge several colleagues who have allowed us to
 interface, adapt or use parts of their codes:
   Stefan Grimme, W. Hujo, H. Kruse,             : VdW corrections, initial TS optimization,
                  C. Bannwarth                     DFT functionals, gCP, sTDA/sTD-DF
   Ed Valeev, F. Pavosevic, A. Kumar             : LibInt (2-el integral package), F12 methods
   Garnet Chan, S. Sharma, J. Yang, R. Olivares  : DMRG
   Ulf Ekstrom                                   : XCFun DFT Library
   Mihaly Kallay                                 : mrcc  (arbitrary order and MRCC methods)
   Andreas Klamt, Michael Diedenhofen            : otool_cosmo (COSMO solvation model)
   Jiri Pittner, Ondrej Demel                    : Mk-CCSD
   Frank Weinhold                                : gennbo (NPA and NBO analysis)
   Christopher J. Cramer and Donald G. Truhlar   : smd solvation model
   Lars Goerigk                                  : TD-DFT with DH, B97 family of functionals
   V. Asgeirsson, H. Jonsson                     : NEB implementation
   FAccTs GmbH                                   : IRC, NEB, NEB-TS, Multilevel, MM, QM/MM, CI optimization
   S Lehtola, MJT Oliveira, MAL Marques          : LibXC Library


 Your calculation uses the libint2 library for the computation of 2-el integrals
 For citations please refer to: http://libint.valeyev.net

 Your ORCA version has been built with support for libXC version: 4.2.3
 For citations please refer to: https://tddft.org/programs/libxc/

 This ORCA versions uses:
   CBLAS   interface :  Fast vector & matrix operations
   LAPACKE interface :  Fast linear algebra routines
   SCALAPACK package :  Parallel linear algebra routines




***************************************
The coordinates will be read from file: water_MP2_aug-cc-pVTZ_OPT.xyz
***************************************


----- Orbital basis set information -----
Your calculation utilizes the basis: aug-cc-pVTZ 
    H, B-Ne : Obtained from the ccRepo (grant-hill.group.shef.ac.uk/ccrepo) Feb. 2017
              R. A. Kendall, T. H. Dunning, Jr., R. J. Harrison, J. Chem. Phys. 96, 6796 (1992)
         He : Obtained from the ccRepo (grant-hill.group.shef.ac.uk/ccrepo) Feb. 2017
              D. E. Woon, T. H. Dunning, Jr., J. Chem. Phys. 100, 2975 (1994)
  Li-Be, Na : Obtained from the ccRepo (grant-hill.group.shef.ac.uk/ccrepo) Feb. 2017
              B. P. Prascher, D. E. Woon, K. A. Peterson, T. H. Dunning, Jr., A. K. Wilson, Theor. Chem. Acc. 128, 69 (2011)
         Mg : Obtained from the Peterson Research Group Website (tyr0.chem.wsu.edu/~kipeters) Feb. 2017
              B. P. Prascher, D. E. Woon, K. A. Peterson, T. H. Dunning, Jr., A. K. Wilson, Theor. Chem. Acc. 128, 69 (2011)
      Al-Ar : Obtained from the ccRepo (grant-hill.group.shef.ac.uk/ccrepo) Feb. 2017
              D. E. Woon, T. H. Dunning, Jr., J. Chem. Phys. 98, 1358 (1993)
      Sc-Zn : Obtained from the ccRepo (grant-hill.group.shef.ac.uk/ccrepo) Feb. 2017
              N. B. Balabanov, K. A. Peterson, J. Chem. Phys. 123, 064107 (2005)
              N. B. Balabanov, K. A. Peterson, J. Chem. Phys. 125, 074110 (2006)
      Ga-Kr : Obtained from the ccRepo (grant-hill.group.shef.ac.uk/ccrepo) Feb. 2017
              A. K. Wilson, D. E. Woon, K. A. Peterson, T. H. Dunning, Jr., J. Chem. Phys. 110, 7667 (1999)
     Ag, Au : Obtained from the Peterson Research Group Website (tyr0.chem.wsu.edu/~kipeters) Feb. 2017
              K. A. Peterson, C. Puzzarini, Theor. Chem. Acc. 114, 283 (2005)

----- AuxC basis set information -----
Your calculation utilizes the auxiliary basis: aug-cc-pVTZ/C 
  H-He, B-F, Al-Ar, Ga-Kr : Obtained from the EMSL Basis Set Exchange (bse.pnl.gov) Feb. 2017
                            F. Weigend, A. Kohn, C. Hattig, J. Chem. Phys. 116, 3175 (2002)
                   Be, Mg : Obtained from the TURBOMOLE 7.0 basis set library
                            C. Haettig, Phys. Chem. Chem. Phys. 7, 59 (2005)
                       Ne : Obtained from the EMSL Basis Set Exchange (bse.pnl.gov) Feb. 2017
                            C. Haettig, Phys. Chem. Chem. Phys. 7, 59 (2005)
                            F. Weigend, A. Kohn, C. Hattig, J. Chem. Phys. 116, 3175 (2002)
                    Sc-Zn : Obtained from the EMSL Basis Set Exchange (bse.pnl.gov) Feb. 2017
                            J. G. Hill, J. A. Platts, J. Chem. Phys. 128, 044104 (2008)

================================================================================
                                        WARNINGS
                       Please study these warnings very carefully!
================================================================================


WARNING: MDCI localization with Augmented Hessian Foster-Boys
  ===> : Switching off randomization!

WARNING: Post HF methods need fully converged wavefunctions
  ===> : Setting SCFConvForced true
         You can overwrite this default with %scf ConvForced false 


INFO   : the flag for use of LIBINT has been found!

================================================================================
                                       INPUT FILE
================================================================================
NAME = water_DLPNO-CCSDT_aug-cc-pVTZ_SPE.inp
|  1> # Water SPE  with B3LYP/cc-pVTZ
|  2> 
|  3> ! DLPNO-CCSD(T) aug-cc-pVTZ aug-cc-pVTZ/C TightSCF PAL4
|  4> 
|  5> * xyzfile 0 1 water_MP2_aug-cc-pVTZ_OPT.xyz
|  6> 
|  7>                          ****END OF INPUT****
================================================================================

                       ****************************
                       * Single Point Calculation *
                       ****************************

---------------------------------
CARTESIAN COORDINATES (ANGSTROEM)
---------------------------------
  O     -0.009752   -0.013799    0.000000
  H     -0.287462    0.906575    0.000000
  H      0.950554    0.031174    0.000000

----------------------------
CARTESIAN COORDINATES (A.U.)
----------------------------
  NO LB      ZA    FRAG     MASS         X           Y           Z
   0 O     8.0000    0    15.999   -0.018429   -0.026076    0.000000
   1 H     1.0000    0     1.008   -0.543225    1.713178    0.000000
   2 H     1.0000    0     1.008    1.796287    0.058910    0.000000

--------------------------------
INTERNAL COORDINATES (ANGSTROEM)
--------------------------------
 O      0   0   0     0.000000000000     0.00000000     0.00000000
 H      1   0   0     0.961358623886     0.00000000     0.00000000
 H      1   2   0     0.961358852029   104.10916958     0.00000000

---------------------------
INTERNAL COORDINATES (A.U.)
---------------------------
 O      0   0   0     0.000000000000     0.00000000     0.00000000
 H      1   0   0     1.816704515628     0.00000000     0.00000000
 H      1   2   0     1.816704946756   104.10916958     0.00000000

---------------------
BASIS SET INFORMATION
---------------------
There are 2 groups of distinct atoms

 Group   1 Type O   : 19s6p3d2f contracted to 5s4p3d2f pattern {88111/3111/111/11}
 Group   2 Type H   : 6s3p2d contracted to 4s3p2d pattern {3111/111/11}

Atom   0O    basis set group =>   1
Atom   1H    basis set group =>   2
Atom   2H    basis set group =>   2
---------------------------------
AUXILIARY/C BASIS SET INFORMATION
---------------------------------
There are 2 groups of distinct atoms

 Group   1 Type O   : 9s7p6d4f2g contracted to 9s7p6d4f2g pattern {111111111/1111111/111111/1111/11}
 Group   2 Type H   : 5s4p3d2f contracted to 5s4p3d2f pattern {11111/1111/111/11}

Atom   0O    basis set group =>   1
Atom   1H    basis set group =>   2
Atom   2H    basis set group =>   2

Checking for AutoStart:
The File: water_DLPNO-CCSDT_aug-cc-pVTZ_SPE.gbw exists
Trying to determine its content:
     ... Fine, the file contains calculation information
     ... Fine, the calculation information was read
     ... Fine, the file contains a basis set
     ... Fine, the basis set was read
     ... Fine, the file contains a geometry
     ... Fine, the geometry was read
     ... Fine, the file contains a set of orbitals
     ... Fine, the orbitals can be read
     => possible old guess file was deleted
     => GBW file was renamed to GES file
     => GES file is set as startup file
     => Guess is set to MORead
     ... now leaving AutoStart



           ************************************************************
           *        Program running with 4 parallel MPI-processes     *
           *              working on a common directory               *
           ************************************************************
------------------------------------------------------------------------------
                           ORCA GTO INTEGRAL CALCULATION
------------------------------------------------------------------------------

                         BASIS SET STATISTICS AND STARTUP INFO

 # of primitive gaussian shells          ...   52
 # of primitive gaussian functions       ...  116
 # of contracted shells                  ...   32
 # of contracted basis functions         ...   92
 Highest angular momentum                ...    3
 Maximum contraction depth               ...    8
 Integral package used                   ... LIBINT
 Integral threshhold            Thresh   ...  2.500e-11
 Primitive cut-off              TCut     ...  2.500e-12


------------------------------ INTEGRAL EVALUATION ----------------------------


 * One electron integrals 
 Pre-screening matrix                    ... done
 Shell pair data                         ... done (   0.000 sec)



           ************************************************************
           *        Program running with 4 parallel MPI-processes     *
           *              working on a common directory               *
           ************************************************************
-------------------------------------------------------------------------------
                                 ORCA SCF
-------------------------------------------------------------------------------

------------
SCF SETTINGS
------------
Hamiltonian:
 Ab initio Hamiltonian  Method          .... Hartree-Fock(GTOs)


General Settings:
 Integral files         IntName         .... water_DLPNO-CCSDT_aug-cc-pVTZ_SPE
 Hartree-Fock type      HFTyp           .... RHF
 Total Charge           Charge          ....    0
 Multiplicity           Mult            ....    1
 Number of Electrons    NEL             ....   10
 Basis Dimension        Dim             ....   92
 Nuclear Repulsion      ENuc            ....      9.1561590521 Eh

Convergence Acceleration:
 DIIS                   CNVDIIS         .... on
   Start iteration      DIISMaxIt       ....    12
   Startup error        DIISStart       ....  0.200000
   # of expansion vecs  DIISMaxEq       ....     5
   Bias factor          DIISBfac        ....   1.050
   Max. coefficient     DIISMaxC        ....  10.000
 Newton-Raphson         CNVNR           .... off
 SOSCF                  CNVSOSCF        .... on
   Start iteration      SOSCFMaxIt      ....   150
   Startup grad/error   SOSCFStart      ....  0.003300
 Level Shifting         CNVShift        .... on
   Level shift para.    LevelShift      ....    0.2500
   Turn off err/grad.   ShiftErr        ....    0.0010
 Zerner damping         CNVZerner       .... off
 Static damping         CNVDamp         .... on
   Fraction old density DampFac         ....    0.7000
   Max. Damping (<1)    DampMax         ....    0.9800
   Min. Damping (>=0)   DampMin         ....    0.0000
   Turn off err/grad.   DampErr         ....    0.1000
 Fernandez-Rico         CNVRico         .... off

SCF Procedure:
 Maximum # iterations   MaxIter         ....   125
 SCF integral mode      SCFMode         .... Direct
   Integral package                     .... LIBINT
 Reset frequency        DirectResetFreq ....    20
 Integral Threshold     Thresh          ....  2.500e-11 Eh
 Primitive CutOff       TCut            ....  2.500e-12 Eh

Convergence Tolerance:
 Convergence Check Mode ConvCheckMode   .... Total+1el-Energy
 Convergence forced     ConvForced      .... 1
 Energy Change          TolE            ....  1.000e-08 Eh
 1-El. energy change                    ....  1.000e-05 Eh
 Orbital Gradient       TolG            ....  1.000e-05
 Orbital Rotation angle TolX            ....  1.000e-05
 DIIS Error             TolErr          ....  5.000e-07


Diagonalization of the overlap matrix:
Smallest eigenvalue                        ... 3.888e-04
Time for diagonalization                   ...    0.002 sec
Threshold for overlap eigenvalues          ... 1.000e-08
Number of eigenvalues below threshold      ... 0
Time for construction of square roots      ...    0.001 sec
Total time needed                          ...    0.003 sec

---------------------
INITIAL GUESS: MOREAD
---------------------
Guess MOs are being read from file: water_DLPNO-CCSDT_aug-cc-pVTZ_SPE.ges
Input Geometry matches current geometry (good)
Input basis set matches current basis set (good)
MOs were renormalized
MOs were reorthogonalized (Cholesky)
                      ------------------
                      INITIAL GUESS DONE (   0.0 sec)
                      ------------------
--------------
SCF ITERATIONS
--------------
ITER       Energy         Delta-E        Max-DP      RMS-DP      [F,P]     Damp
               ***  Starting incremental Fock matrix formation  ***
                      *** Initiating the SOSCF procedure ***
                      *** Re-Reading the Fockian *** 
                      *** Removing any level shift *** 
ITER      Energy       Delta-E        Grad      Rot      Max-DP    RMS-DP
  0    -76.06028288 -76.0602828793  0.000000  0.000000  0.000000  0.000000
               *** Restarting incremental Fock matrix formation ***
                 **** Energy Check signals convergence ****
              ***Rediagonalizing the Fockian in SOSCF/NRSCF***

               *****************************************************
               *                     SUCCESS                       *
               *           SCF CONVERGED AFTER   1 CYCLES          *
               *****************************************************


----------------
TOTAL SCF ENERGY
----------------

Total Energy       :          -76.06028288 Eh           -2069.70552 eV

Components:
Nuclear Repulsion  :            9.15615905 Eh             249.15175 eV
Electronic Energy  :          -85.21644193 Eh           -2318.85727 eV
One Electron Energy:         -122.97335504 Eh           -3346.27511 eV
Two Electron Energy:           37.75691311 Eh            1027.41784 eV

Virial components:
Potential Energy   :         -152.00343188 Eh           -4136.22366 eV
Kinetic Energy     :           75.94314900 Eh            2066.51814 eV
Virial Ratio       :            2.00154239


---------------
SCF CONVERGENCE
---------------

  Last Energy change         ...   -3.9790e-13  Tolerance :   1.0000e-08
  Last MAX-Density change    ...    2.1184e-07  Tolerance :   1.0000e-07
  Last RMS-Density change    ...    5.9698e-09  Tolerance :   5.0000e-09
  Last Orbital Gradient      ...    1.1002e-07  Tolerance :   1.0000e-05
  Last Orbital Rotation      ...    8.1482e-08  Tolerance :   1.0000e-05

             **** THE GBW FILE WAS UPDATED (water_DLPNO-CCSDT_aug-cc-pVTZ_SPE.gbw) ****
             **** DENSITY FILE WAS UPDATED (water_DLPNO-CCSDT_aug-cc-pVTZ_SPE.scfp) ****
             **** ENERGY FILE WAS UPDATED (water_DLPNO-CCSDT_aug-cc-pVTZ_SPE.en.tmp) ****
             **** THE GBW FILE WAS UPDATED (water_DLPNO-CCSDT_aug-cc-pVTZ_SPE.gbw) ****
             **** DENSITY FILE WAS UPDATED (water_DLPNO-CCSDT_aug-cc-pVTZ_SPE.scfp) ****
----------------
ORBITAL ENERGIES
----------------

  NO   OCC          E(Eh)            E(eV) 
   0   2.0000     -20.568098      -559.6864 
   1   2.0000      -1.351770       -36.7835 
   2   2.0000      -0.714805       -19.4508 
   3   2.0000      -0.584949       -15.9173 
   4   2.0000      -0.510142       -13.8817 
   5   0.0000       0.029366         0.7991 
   6   0.0000       0.047693         1.2978 
   7   0.0000       0.135888         3.6977 
   8   0.0000       0.158784         4.3207 
   9   0.0000       0.175162         4.7664 
  10   0.0000       0.183083         4.9819 
  11   0.0000       0.227120         6.1803 
  12   0.0000       0.244920         6.6646 
  13   0.0000       0.265392         7.2217 
  14   0.0000       0.300004         8.1635 
  15   0.0000       0.310129         8.4390 
  16   0.0000       0.365782         9.9534 
  17   0.0000       0.437325        11.9002 
  18   0.0000       0.466027        12.6812 
  19   0.0000       0.599182        16.3046 
  20   0.0000       0.658465        17.9177 
  21   0.0000       0.707948        19.2642 
  22   0.0000       0.722646        19.6642 
  23   0.0000       0.731660        19.9095 
  24   0.0000       0.830508        22.5993 
  25   0.0000       0.846325        23.0297 
  26   0.0000       0.892198        24.2779 
  27   0.0000       0.912468        24.8295 
  28   0.0000       0.918253        24.9869 
  29   0.0000       0.922358        25.0986 
  30   0.0000       0.930782        25.3279 
  31   0.0000       0.961360        26.1599 
  32   0.0000       1.020819        27.7779 
  33   0.0000       1.043067        28.3833 
  34   0.0000       1.082484        29.4559 
  35   0.0000       1.108398        30.1611 
  36   0.0000       1.176139        32.0044 
  37   0.0000       1.181786        32.1580 
  38   0.0000       1.261013        34.3139 
  39   0.0000       1.510032        41.0901 
  40   0.0000       1.535033        41.7704 
  41   0.0000       1.582533        43.0629 
  42   0.0000       1.805303        49.1248 
  43   0.0000       1.820253        49.5316 
  44   0.0000       1.983792        53.9817 
  45   0.0000       2.117151        57.6106 
  46   0.0000       2.262592        61.5682 
  47   0.0000       2.315612        63.0110 
  48   0.0000       2.326741        63.3139 
  49   0.0000       2.418184        65.8021 
  50   0.0000       2.420483        65.8647 
  51   0.0000       2.443030        66.4782 
  52   0.0000       2.479530        67.4714 
  53   0.0000       2.677286        72.8527 
  54   0.0000       2.698016        73.4167 
  55   0.0000       2.770625        75.3925 
  56   0.0000       2.815306        76.6084 
  57   0.0000       2.883794        78.4720 
  58   0.0000       3.652017        99.3764 
  59   0.0000       3.740718       101.7901 
  60   0.0000       4.017430       109.3198 
  61   0.0000       4.082447       111.0890 
  62   0.0000       4.163336       113.2901 
  63   0.0000       4.246733       115.5595 
  64   0.0000       4.286826       116.6505 
  65   0.0000       4.374090       119.0250 
  66   0.0000       4.376981       119.1037 
  67   0.0000       4.404422       119.8504 
  68   0.0000       4.516965       122.9129 
  69   0.0000       4.724206       128.5522 
  70   0.0000       4.841948       131.7561 
  71   0.0000       5.147216       140.0629 
  72   0.0000       5.147541       140.0717 
  73   0.0000       5.248984       142.8321 
  74   0.0000       5.321709       144.8111 
  75   0.0000       5.520159       150.2112 
  76   0.0000       5.661380       154.0540 
  77   0.0000       6.176714       168.0769 
  78   0.0000       6.513055       177.2292 
  79   0.0000       6.708798       182.5557 
  80   0.0000       6.896986       187.6765 
  81   0.0000       7.131050       194.0457 
  82   0.0000       7.250861       197.3060 
  83   0.0000       7.298250       198.5955 
  84   0.0000       7.311110       198.9454 
  85   0.0000       7.328206       199.4106 
  86   0.0000       7.354167       200.1170 
  87   0.0000       7.529914       204.8994 
  88   0.0000       7.895708       214.8531 
  89   0.0000       7.921129       215.5449 
  90   0.0000       8.798449       239.4180 
  91   0.0000      15.704541       427.3423 

                    ********************************
                    * MULLIKEN POPULATION ANALYSIS *
                    ********************************

-----------------------
MULLIKEN ATOMIC CHARGES
-----------------------
   0 O :   -0.444797
   1 H :    0.222398
   2 H :    0.222399
Sum of atomic charges:   -0.0000000

--------------------------------
MULLIKEN REDUCED ORBITAL CHARGES
--------------------------------
  0 O s       :     3.872007  s :     3.872007
      pz      :     1.876258  p :     4.553623
      px      :     1.295481
      py      :     1.381884
      dz2     :     0.002183  d :     0.017890
      dxz     :     0.000715
      dyz     :     0.001430
      dx2y2   :     0.011697
      dxy     :     0.001865
      f0      :     0.000174  f :     0.001278
      f+1     :     0.000518
      f-1     :     0.000411
      f+2     :     0.000001
      f-2     :     0.000009
      f+3     :     0.000050
      f-3     :     0.000114
  1 H s       :     0.660416  s :     0.660416
      pz      :     0.050126  p :     0.098759
      px      :     0.029917
      py      :     0.018716
      dz2     :     0.000140  d :     0.018427
      dxz     :     0.001116
      dyz     :     0.009464
      dx2y2   :     0.004698
      dxy     :     0.003009
  2 H s       :     0.660416  s :     0.660416
      pz      :     0.050126  p :     0.098759
      px      :     0.017564
      py      :     0.031069
      dz2     :     0.000140  d :     0.018427
      dxz     :     0.010578
      dyz     :     0.000002
      dx2y2   :     0.000995
      dxy     :     0.006713


                     *******************************
                     * LOEWDIN POPULATION ANALYSIS *
                     *******************************

----------------------
LOEWDIN ATOMIC CHARGES
----------------------
   0 O :    1.024701
   1 H :   -0.512351
   2 H :   -0.512350

-------------------------------
LOEWDIN REDUCED ORBITAL CHARGES
-------------------------------
  0 O s       :     3.011314  s :     3.011314
      pz      :     1.425441  p :     3.879061
      px      :     1.198185
      py      :     1.255435
      dz2     :     0.012086  d :     0.070144
      dxz     :     0.000225
      dyz     :     0.000451
      dx2y2   :     0.045936
      dxy     :     0.011446
      f0      :     0.000152  f :     0.014780
      f+1     :     0.002809
      f-1     :     0.002167
      f+2     :     0.000006
      f-2     :     0.000044
      f+3     :     0.006271
      f-3     :     0.003332
  1 H s       :     0.589019  s :     0.589019
      pz      :     0.165728  p :     0.555731
      px      :     0.139962
      py      :     0.250041
      dz2     :     0.033173  d :     0.367601
      dxz     :     0.009751
      dyz     :     0.111362
      dx2y2   :     0.110602
      dxy     :     0.102713
  2 H s       :     0.589018  s :     0.589018
      pz      :     0.165728  p :     0.555731
      px      :     0.247505
      py      :     0.142498
      dz2     :     0.033173  d :     0.367601
      dxz     :     0.120781
      dyz     :     0.000332
      dx2y2   :     0.083682
      dxy     :     0.129632


                      *****************************
                      * MAYER POPULATION ANALYSIS *
                      *****************************

  NA   - Mulliken gross atomic population
  ZA   - Total nuclear charge
  QA   - Mulliken gross atomic charge
  VA   - Mayer's total valence
  BVA  - Mayer's bonded valence
  FA   - Mayer's free valence

  ATOM       NA         ZA         QA         VA         BVA        FA
  0 O      8.4448     8.0000    -0.4448     1.9943     1.9943     0.0000
  1 H      0.7776     1.0000     0.2224     1.0319     1.0319    -0.0000
  2 H      0.7776     1.0000     0.2224     1.0319     1.0319    -0.0000

  Mayer bond orders larger than 0.100000
B(  0-O ,  1-H ) :   0.9971 B(  0-O ,  2-H ) :   0.9971 

-------
TIMINGS
-------

Total SCF time: 0 days 0 hours 0 min 0 sec 

Total time                  ....       0.507 sec
Sum of individual times     ....       0.357 sec  ( 70.3%)

Fock matrix formation       ....       0.349 sec  ( 68.9%)
Diagonalization             ....       0.001 sec  (  0.2%)
Density matrix formation    ....       0.000 sec  (  0.0%)
Population analysis         ....       0.001 sec  (  0.3%)
Initial guess               ....       0.003 sec  (  0.6%)
Orbital Transformation      ....       0.000 sec  (  0.0%)
Orbital Orthonormalization  ....       0.002 sec  (  0.4%)
DIIS solution               ....       0.000 sec  (  0.0%)
SOSCF solution              ....       0.002 sec  (  0.3%)


           ************************************************************
           *        Program running with 4 parallel MPI-processes     *
           *              working on a common directory               *
           ************************************************************


------------------------------------------------------------------------------- 
                              ORCA-MATRIX DRIVEN CI                            
------------------------------------------------------------------------------- 


Wavefunction type
-----------------
Correlation treatment                      ...      CCSD     
Single excitations                         ... ON
Orbital optimization                       ... OFF
Calculation of Z vector                    ... OFF
Calculation of Brueckner orbitals          ... OFF
Perturbative triple excitations            ... ON
Calculation of F12 correction              ... OFF
Frozen core treatment                      ... chemical core (2 el)
Reference Wavefunction                     ... RHF
  Internal Orbitals:     1 ...    4 (  4 MO's/  8 electrons)
  Virtual  Orbitals:     5 ...   91 ( 87 MO's              )
Number of AO's                             ...     92
Number of electrons                        ...     10
Number of correlated electrons             ...      8

Algorithmic settings
--------------------
Integral transformation                    ... All integrals via the RI transformation
K(C) Formation                             ... RI-DLPNO
   PNO-Integral Storage                    ... ON DISK
   PNO occupation number cut-off           ... 3.330e-07
   Singles PNO occupation number cut-off   ... 9.990e-09
   PNO Mulliken prescreening cut-off       ... 1.000e-03
   Domain cut-off (Mulliken population)    ... 1.000e-03
   PNO Normalization                       ...    1
Maximum number of iterations               ...        50
Convergence tolerance (max. residuum)      ... 1.000e-05
Level shift for amplitude update           ... 2.000e-01
Maximum number of DIIS vectors             ...         7
DIIS turned on at iteration                ...         0
Damping before turning on DIIS             ...     0.500
Damping after turning on DIIS              ...     0.000
Pair specific amplitude update             ... OFF
Natural orbital iterations                 ... OFF
Perturbative natural orbital generation    ... OFF
Printlevel                                 ... 2

Singles Fock matrix elements calculated using PNOs.

Memory handling:
----------------
Maximum memory for working arrays          ...    512 MB
Data storage in matrix containers          ... UNCOMPRESSED
Data type for integral storage             ... DOUBLE
In-Core Storage of quantities:
   Amplitudes+Sigma Vector      ... NO
   J+K operators                ... NO
   DIIS vectors                 ... NO
   3-external integrals         ... NO
   4-external integrals         ... NO

Localization treatment:
-----------------------
Localization option                        ...    6
Localization threshhold                    ... -1.0e+00
Using relative localization threshhold     ... 1.0e-08
Neglect threshold for strong pairs         ... 1.000e-04 Eh
Prescreening threshold for very weak pairs ... 1.000e-06 Eh

Initializing the integral package          ... done
Localizing the valence orbitals
------------------------------------------------------------------------------
                           ORCA ORBITAL LOCALIZATION
------------------------------------------------------------------------------

Input orbitals are from                  ... water_DLPNO-CCSDT_aug-cc-pVTZ_SPE.gbw
Output orbitals are to                   ... water_DLPNO-CCSDT_aug-cc-pVTZ_SPE.loc
Max. number of iterations                ... 128
Localizations seeded randomly            ... off
Convergence tolerance                    ... 1.000e-06
Using relative localization threshhold   ... 1.000e-08
Treshold for strong local MOs            ... 9.500e-01
Treshold for bond MOs                    ... 8.500e-01
Operator                                 ... 0
Orbital range for localization           ... 1 to 4
Localization criterion                   ... FOSTER-BOYS (AUGMENTED HESSIAN)
Doing the dipole integrals     ... o.k.
Initial value of the localization sum :     0.623915
ITERATION   0 : L=    2.4530343337 DL=  1.83e+00 (AVERGE_DL)=    0.5521351350 
ITERATION   1 : L=    2.5036466471 DL=  5.06e-02 (AVERGE_DL)=    0.0918443550 
ITERATION   2 : L=    2.5089485921 DL=  5.30e-03 (AVERGE_DL)=    0.0297263773 
ITERATION   3 : L=    2.5095071214 DL=  5.59e-04 (AVERGE_DL)=    0.0096482234 
ITERATION   4 : L=    2.5095785437 DL=  7.14e-05 (AVERGE_DL)=    0.0034501771 
ITERATION   5 : L=    2.5095870839 DL=  8.54e-06 (AVERGE_DL)=    0.0011930474 
ITERATION   6 : L=    2.5095880397 DL=  9.56e-07 (AVERGE_DL)=    0.0003991179 
LOCALIZATION SUM CONVERGED

------------------------------------------------------
AUGMENTED HESSIAN OPTIMIZATION OF FOSTER-BOYS ORBITALS
------------------------------------------------------

Spin operator:           0
Orbital window:          1 to 4
Number of iterations:    128
Gradient tolerance:      1.000e-06
Number of pairs:         6
Davidson threshold:      2000
Diagonalization method:  LAPACK
Iter:    0   L: 2.5095880397   Grad. norm: 6.038183e-04
   *** Likely close to a maximum now. ***
       Augmented Hessian eigenvalues:  2.21e-07 -1.28e+00 -3.15e+00 -4.60e+00 ... 
Iter:    1   L: 2.5095881503   Grad. norm: 9.995233e-08
LOCALIZATION HAS CONVERGED.

Eigenvalues of the Hessian:
  0 -1.275e+00
  1 -3.154e+00
  2 -4.604e+00
  3 -5.301e+00
  4 -7.151e+00
  5 -9.517e+00


------------------------------------------------------------------------------- 
                    LOCALIZED MOLECULAR ORBITAL COMPOSITIONS                   
------------------------------------------------------------------------------- 

The Mulliken populations for each LMO on each atom are computed
The LMO`s will be ordered according to atom index and type
  (A) Strongly localized MO`s have populations of >=0.950 on one atom
  (B) Two center bond orbitals have populations of >=0.850 on two atoms
  (C) Other MO`s are considered to be `delocalized`

FOUND  -   2 strongly local MO`s
       -   2 two center bond MO`s
       -   0 significantly delocalized MO`s

Rather strongly localized orbitals:
MO   2:   0O  -   1.000616
MO   1:   0O  -   1.000616
Bond-like localized orbitals:
MO   4:   2H  -   0.385948  and   0O  -   0.610840
MO   3:   1H  -   0.385948  and   0O  -   0.610840
Localized MO's were stored in: water_DLPNO-CCSDT_aug-cc-pVTZ_SPE.loc

Localizing the core orbitals
------------------------------------------------------------------------------
                           ORCA ORBITAL LOCALIZATION
------------------------------------------------------------------------------

Input orbitals are from                  ... water_DLPNO-CCSDT_aug-cc-pVTZ_SPE.loc
Output orbitals are to                   ... water_DLPNO-CCSDT_aug-cc-pVTZ_SPE.loc
Max. number of iterations                ... 128
Localizations seeded randomly            ... off
Convergence tolerance                    ... 1.000e-06
Using relative localization threshhold   ... 1.000e-08
Treshold for strong local MOs            ... 9.500e-01
Treshold for bond MOs                    ... 8.500e-01
Operator                                 ... 0
Orbital range for localization           ... 0 to 0
Localization criterion                   ... FOSTER-BOYS (AUGMENTED HESSIAN)
Doing the dipole integrals     ... o.k.

ORCA_LOC: ONLY ONE ORBITAL - SKIPPING LOCALIZATION


------------------------------------------------------------------------------- 
                    LOCALIZED MOLECULAR ORBITAL COMPOSITIONS                   
------------------------------------------------------------------------------- 

The Mulliken populations for each LMO on each atom are computed
The LMO`s will be ordered according to atom index and type
  (A) Strongly localized MO`s have populations of >=0.950 on one atom
  (B) Two center bond orbitals have populations of >=0.850 on two atoms
  (C) Other MO`s are considered to be `delocalized`

FOUND  -   1 strongly local MO`s
       -   0 two center bond MO`s
       -   0 significantly delocalized MO`s

Rather strongly localized orbitals:
MO   0:   0O  -   0.999487
Localized MO's were stored in: water_DLPNO-CCSDT_aug-cc-pVTZ_SPE.loc

Warning: reference  - re-canonicalizations have been set to INT 1 VIRT 1
Warning: internal orbitals are localized - no re-canonicalization of internal orbitals
Warning: UsePNO is turned on - no re-canonicalization of internal and virtual orbitals

--------------------------
CLOSED-SHELL FOCK OPERATOR
--------------------------

<ss|ss>:         4186 b            0 skpd (  0.0%)    0.002 s ( 0.001 ms/b)
<ss|sp>:        11830 b            0 skpd (  0.0%)    0.003 s ( 0.000 ms/b)
<ss|sd>:         8281 b            0 skpd (  0.0%)    0.002 s ( 0.000 ms/b)
<ss|sf>:         2366 b            0 skpd (  0.0%)    0.001 s ( 0.001 ms/b)
<ss|pp>:         5005 b            0 skpd (  0.0%)    0.001 s ( 0.000 ms/b)
<ss|pd>:         6370 b            0 skpd (  0.0%)    0.002 s ( 0.000 ms/b)
<ss|pf>:         1820 b            0 skpd (  0.0%)    0.001 s ( 0.000 ms/b)
<ss|dd>:         2548 b            0 skpd (  0.0%)    0.001 s ( 0.000 ms/b)
<ss|df>:         1274 b            0 skpd (  0.0%)    0.001 s ( 0.001 ms/b)
<ss|ff>:          273 b            0 skpd (  0.0%)    0.000 s ( 0.001 ms/b)
<sp|sp>:         8515 b            0 skpd (  0.0%)    0.002 s ( 0.000 ms/b)
<sp|sd>:        11830 b            0 skpd (  0.0%)    0.003 s ( 0.000 ms/b)
<sp|sf>:         3380 b            0 skpd (  0.0%)    0.002 s ( 0.001 ms/b)
<sp|pp>:         7150 b            0 skpd (  0.0%)    0.002 s ( 0.000 ms/b)
<sp|pd>:         9100 b            0 skpd (  0.0%)    0.004 s ( 0.000 ms/b)
<sp|pf>:         2600 b            0 skpd (  0.0%)    0.002 s ( 0.001 ms/b)
<sp|dd>:         3640 b            0 skpd (  0.0%)    0.002 s ( 0.001 ms/b)
<sp|df>:         1820 b            0 skpd (  0.0%)    0.002 s ( 0.001 ms/b)
<sp|ff>:          390 b            0 skpd (  0.0%)    0.001 s ( 0.002 ms/b)
<sd|sd>:         4186 b            0 skpd (  0.0%)    0.002 s ( 0.000 ms/b)
<sd|sf>:         2366 b            0 skpd (  0.0%)    0.002 s ( 0.001 ms/b)
<sd|pp>:         5005 b            0 skpd (  0.0%)    0.002 s ( 0.000 ms/b)
<sd|pd>:         6370 b            0 skpd (  0.0%)    0.005 s ( 0.001 ms/b)
<sd|pf>:         1820 b            0 skpd (  0.0%)    0.002 s ( 0.001 ms/b)
<sd|dd>:         2548 b            0 skpd (  0.0%)    0.003 s ( 0.001 ms/b)
<sd|df>:         1274 b            0 skpd (  0.0%)    0.003 s ( 0.002 ms/b)
<sd|ff>:          273 b            0 skpd (  0.0%)    0.001 s ( 0.004 ms/b)
<sf|sf>:          351 b            0 skpd (  0.0%)    0.001 s ( 0.002 ms/b)
<sf|pp>:         1430 b            0 skpd (  0.0%)    0.001 s ( 0.001 ms/b)
<sf|pd>:         1820 b            0 skpd (  0.0%)    0.002 s ( 0.001 ms/b)
<sf|pf>:          520 b            0 skpd (  0.0%)    0.001 s ( 0.002 ms/b)
<sf|dd>:          728 b            0 skpd (  0.0%)    0.001 s ( 0.002 ms/b)
<sf|df>:          364 b            0 skpd (  0.0%)    0.001 s ( 0.004 ms/b)
<sf|ff>:           78 b            0 skpd (  0.0%)    0.001 s ( 0.008 ms/b)
<pp|pp>:         1540 b            0 skpd (  0.0%)    0.001 s ( 0.001 ms/b)
<pp|pd>:         3850 b            0 skpd (  0.0%)    0.003 s ( 0.001 ms/b)
<pp|pf>:         1100 b            0 skpd (  0.0%)    0.001 s ( 0.001 ms/b)
<pp|dd>:         1540 b            0 skpd (  0.0%)    0.002 s ( 0.001 ms/b)
<pp|df>:          770 b            0 skpd (  0.0%)    0.002 s ( 0.002 ms/b)
<pp|ff>:          165 b            0 skpd (  0.0%)    0.001 s ( 0.004 ms/b)
<pd|pd>:         2485 b            0 skpd (  0.0%)    0.004 s ( 0.002 ms/b)
<pd|pf>:         1400 b            0 skpd (  0.0%)    0.005 s ( 0.004 ms/b)
<pd|dd>:         1960 b            0 skpd (  0.0%)    0.007 s ( 0.003 ms/b)
<pd|df>:          980 b            0 skpd (  0.0%)    0.004 s ( 0.004 ms/b)
<pd|ff>:          210 b            0 skpd (  0.0%)    0.002 s ( 0.008 ms/b)
<pf|pf>:          210 b            0 skpd (  0.0%)    0.001 s ( 0.005 ms/b)
<pf|dd>:          560 b            0 skpd (  0.0%)    0.002 s ( 0.004 ms/b)
<pf|df>:          280 b            0 skpd (  0.0%)    0.002 s ( 0.008 ms/b)
<pf|ff>:           60 b            0 skpd (  0.0%)    0.001 s ( 0.018 ms/b)
<dd|dd>:          406 b            0 skpd (  0.0%)    0.002 s ( 0.005 ms/b)
<dd|df>:          392 b            0 skpd (  0.0%)    0.003 s ( 0.009 ms/b)
<dd|ff>:           84 b            0 skpd (  0.0%)    0.001 s ( 0.017 ms/b)
<df|df>:          105 b            0 skpd (  0.0%)    0.002 s ( 0.017 ms/b)
<df|ff>:           42 b            0 skpd (  0.0%)    0.001 s ( 0.033 ms/b)
<ff|ff>:            6 b            0 skpd (  0.0%)    0.000 s ( 0.083 ms/b)
Time needed for Fock operator              ...            0.114 sec
Reference energy                           ...    -76.060282879

--------------
DLPNO SETTINGS (2015 fully linear scaling implementation)
--------------

TCutMKN:           1.000e-03
TCutPAO:           1.000e-03
TCutPNO:           3.330e-07
TCutPNOSingles:    9.990e-09
TCutEN:            9.700e-01
TCutPAOExt:        1.000e-01
TCutPairs:         1.000e-04
TCutPre:           1.000e-06
TCutOSV:           1.000e-06
TCutDOij:          1.000e-05
TCutDO:            1.000e-02
TCutC:             1.000e-04
TCutCPAO:          1.000e-03
TCutCMO:           1.000e-03
TScaleDOMP2PreScr: 2.000e+00
TScaleMKNMP2PreScr:1.000e+01
TScalePNOMP2PreScr:1.000e+00
PAO overlap thresh 1.000e-08
Using PNOs for Singles Fock computation
Use new domains
Use fully linear algorithm
TCutTNO:           1.000e-09
TCutMP2Pairs:      1.000e-05
TCutDOStrong:      2.000e-03
TCutMKNStrong:     1.000e-02
TCutMKNWeak:       1.000e-01
TCutDOWeak:        4.000e-03
NTCutTNO:          1

--------------------------
Calculating differential overlap integrals ... ok
--------------------------
ELECTRON PAIR PRESCREENING
--------------------------

Dipole-based pair screening          .... used

   TCutDOij = 1.000000e-05
   TCutPre  = 1.000000e-06
   .... Finished loop over pairs
Total time spent in the prescreening                  ...     0.000 sec
sum of pair energies estimated for screened out pairs ...       0.000000000000 Eh
Thresholds for map construction and integral transformation for crude MP2:
   TCutMKN                    ...     1.0e-02
   TCutDO                     ...     2.0e-02
   TCutPairs                  ...     1.0e-04
   TCutPNO_CrudeMP2           ...     3.3e-07
   TCutPNOSingles_CrudeMP2    ...     1.0e-08
--------------------------------
LOCAL RI TRANSFORMATION (IAVPAO)
--------------------------------

Orbital window:       1 to 4
Number of PAOs:      92
Basis functions:     92 (32 shells)
Aux. functions:     198 (56 shells)

Processing maps (0.0 sec)
Average map sizes:
   Aux shells -> MOs               4.0
   Aux shells -> PAOs             92.0
   MOs        -> AO shells        32.0
   PAOs       -> AO shells        32.0

Calculating integrals (0.1 sec, 0.558 MB)
Sorting integrals (0.0 sec, 0.556 MB)
Total time for the integral transformation: 0.1 sec
--------------------------------
INITIAL GUESS AND PNO GENERATION
--------------------------------

PNO truncation parameters                   .... 
    PAOOverlapThresh   =        1.000e-08

    TCutPairs          =        1.000e-04
    TCutPNO            =        3.330e-07
    TCutPNOSingles     =        9.990e-09
    TCutMP2Pairs       =        1.000e-05
    TCutMKN            =        1.000e-02
    TCutDO             =        2.000e-02

Pair selection                          .... not used
Type of local MP2 treatment                 .... semi-local MP2
Strategy for PNO selection                  .... occupation number selection
Pair density normalization                  .... MP2 norm
Spin component scaling                      .... not used

   .... Finished loop over pairs
Making pair pair interaction lists          ... done

                       ===========================
                         10 OF   10 PAIRS ARE KEPT CCSD PAIRS
                          0 OF   10 PAIRS ARE KEPT MP2 PAIRS FOR (T)
                          0 OF   10 PAIRS ARE SKIPPED
                       ===========================

Total time spent in the initial guess                 ...     0.016 sec
SL-MP2 correlation energy (all non-screened pairs)    ...      -0.260581498581 Eh

Initial PNO correlation energy                        ...      -0.260427399110 Eh
sum of pair energies prescreened and skipped MP2 pairs...       0.000000000000 Eh
sum of pair energies of crude MP2 skipped pairs only  ...       0.000000000000 Eh
sum of MP2 pair energies for pairs that were not kept ...       0.000000000000 Eh
sum of PNO error estimates for the kept pairs         ...      -0.000154099471 Eh
                                                          --------------------
sum of all corrections                                         -0.000154099471
Initial total correlation energy                               -0.260581498581
Thresholds for map construction and integral transformation for fine MP2 and CCSD(T) calculation:
   TCutMKN   ...     1.0e-03
   TCutDO    ...     1.0e-02
   TCutPairs ...     1.0e-04
   TCutCMO   ...     1.0e-03
   TCutCPAO  ...     1.0e-03

Thresholds for map construction and integral transformation for strong Triples:
   TCutMKN   ...     1.0e-02
   TCutDO    ...     2.0e-02
   TCutCMO   ...     1.0e-03
   TCutCPAO  ...     1.0e-03

Thresholds for map construction and integral transformation for weak Triples:
   TCutMKN   ...     1.0e-01
   TCutDO    ...     4.0e-02
   TCutCMO   ...     1.0e-03
   TCutCPAO  ...     1.0e-03

--------------------------------
LOCAL RI TRANSFORMATION (IAVPAO)
--------------------------------

Orbital window:       1 to 4
Number of PAOs:      92
Basis functions:     92 (32 shells)
Aux. functions:     198 (56 shells)

Processing maps (0.0 sec)
Average map sizes:
   Aux shells -> MOs               4.0
   Aux shells -> PAOs             92.0
   MOs        -> AO shells        32.0
   PAOs       -> AO shells        32.0

Calculating integrals (0.1 sec, 0.558 MB)
Sorting integrals (0.0 sec, 0.556 MB)
Total time for the integral transformation: 0.1 sec
--------------------------------
INITIAL GUESS AND PNO GENERATION
--------------------------------

PNO truncation parameters                   .... 
    PAOOverlapThresh   =        1.000e-08

    TCutPairs          =        1.000e-04
    TCutPNO            =        3.330e-07
    TCutPNOSingles     =        9.990e-09
    TCutMP2Pairs       =        1.000e-05
    TCutMKN            =        1.000e-03
    TCutDO             =        1.000e-02

Pair selection                          .... not used
Type of local MP2 treatment                 .... semi-local MP2
Strategy for PNO selection                  .... occupation number selection
Pair density normalization                  .... MP2 norm
Spin component scaling                      .... not used

   .... Finished loop over pairs

 PNO Occupation Number Statistics: 
  | Av. % of trace(Dij) retained        ...  99.978486960473
  | sigma^2 in % of trace(Dij) retained ...   1.31e-05
  | Av. % of trace(Di) retained         ...  99.999632271905
  | sigma^2 in % of trace(Di) retained  ...   4.52e-10
 Distributions of % trace(Dij) recovered:
  |       >= 99.9  ...    10 (100.0 % of all pairs)
 Distributions of % trace(Di) recovered :
  |       >= 99.9  ...     4 (100.0 % of all I-pairs )

Making pair pair interaction lists          ... done

                       ===========================
                         10 OF   10 PAIRS ARE KEPT
                       ===========================

Total time spent in the initial guess                 ...     0.014 sec
SL-MP2 correlation energy (all non-screened pairs)    ...      -0.260576139494 Eh

Initial PNO correlation energy                        ...      -0.260416711683 Eh
sum of pair energies estimated for screened out pairs ...       0.000000000000 Eh
sum of MP2 pair energies for pairs that were not kept ...       0.000000000000 Eh
sum of PNO error estimates for the kept pairs         ...      -0.000159427811 Eh
                                                          --------------------
sum of all corrections                                         -0.000159427811
Initial total correlation energy                               -0.260576139494
Thresholds for map construction and integral transformation for fine MP2 and CCSD(T) calculation:
   TCutMKN   ...     1.0e-03
   TCutDO    ...     1.0e-02
   TCutPairs ...     1.0e-04
   TCutCMO   ...     1.0e-03
   TCutCPAO  ...     1.0e-03

Time for aux screen maps:            0.000
Time for maps after fine MP2:            0.000
-----------------------------
LOCAL RI TRANSFORMATION (IJV)
-----------------------------

Orbital window:       1 to 4
Basis functions:     92 (32 shells)
Aux. functions:     198 (56 shells)

Processing maps (0.0 sec)
Average map sizes:
   Aux shells -> MOs(i)            4.0
   Aux shells -> MOs(j)            4.0
   MOs        -> AO shells        32.0

Calculating integrals (0.1 sec, 0.026 MB)
Sorting integrals (0.0 sec, 0.024 MB)
Total time for the integral transformation: 0.1 sec
--------------------------------
LOCAL RI TRANSFORMATION (VABPAO)
--------------------------------

Number of PAOs:      92
Basis functions:     92 (32 shells)
Aux. functions:     198 (56 shells)

Processing maps (0.0 sec)
Average map sizes:
   Aux shells -> PAOs             92.0
   PAOs       -> AO shells        32.0

Calculating integrals (0.1 sec, 22.864 MB)
Finished


-------------------------------------
Pair Pair Term precalculation with     
RI-(ij|mn) and (im|jn) transformation  
ON THE FLY                             
-------------------------------------

   IBatch   1 (of   1)              ... done (    0.115 sec)
Total EXT                           ...           0.115 sec

---------------------
RI-PNO TRANSFORMATION
---------------------

Total Number of PNOs                   ...   486
Average number of PNOs per pair        ...    48
Maximal number of PNOs per pair        ...    52
   #pairs with  1 -  5 PNOs   :    0
   #pairs with  6 - 10 PNOs   :    0
   #pairs with 11 - 15 PNOs   :    0
   #pairs with 16 - 20 PNOs   :    0
   #pairs with 21 - 25 PNOs   :    0
   #pairs with 26 - 30 PNOs   :    0
   #pairs with 31 - 35 PNOs   :    0
   #pairs with 36 - 40 PNOs   :    0
   #pairs with 41 - 45 PNOs   :    2
   #pairs with 46 - 50 PNOs   :    2
   #pairs with 51 - 55 PNOs   :    6

Generation of (ij|ab)[P] integrals            ... on
Generation of (ia|bc)[P],(ja|bc)[P] integrals ... on
Storage of 3 and 4 external integrals         ... on
Generation of ALL (ka|bc)[P] integrals        ... on
Keep RI integrals in memory                   ... off

Ibatch:  1 (of  1)
Starting 2-4 index PNO integral generation ... done

Timings:
Total PNO integral transformation time     ...          0.239 sec
Size of the 3-external file                ...         9 MB
Size of the 4-external file                ...        57 MB
Size of the IKJL file                      ...         0 MB
Size of the all 3-external file            ...        18 MB
Size of the 1-external file                ...         0 MB

Making pair/pair overlap matrices          ... done (    0.005 sec)
Size of the pair overlap file              ... 2 MB
Redoing the guess amplitudes               ... done (    0.000 sec)

-------------------------
FINAL STARTUP INFORMATION
-------------------------

E(0)                                       ...    -76.060282879
E(SL-MP2)                                  ...     -0.260576139
E(SL-MP2) including corrections            ...     -0.260576139
Initial E(tot)                             ...    -76.320859019
<T|T>                                      ...      0.057743679
Number of pairs included                   ... 10
Total number of pairs                      ... 10

------------------------------------------------
                  RHF COUPLED CLUSTER ITERATIONS
------------------------------------------------

Number of PNO amplitudes to be optimized   ...        23742
Number of non-PNO amplitudes               ...        75690
Untruncated number of regular amplitudes   ...        75690

Iter       E(tot)           E(Corr)          Delta-E          Residual     Time
  0    -76.320865671     -0.260423364      0.000152776      0.011341484    0.83
                           *** Turning on DIIS ***
  1    -76.326720521     -0.266278214     -0.005854851      0.007835689    0.85
  2    -76.332412005     -0.271969698     -0.005691484      0.002392541    0.77
  3    -76.333500025     -0.273057718     -0.001088020      0.001062540    0.69
  4    -76.333784324     -0.273342017     -0.000284299      0.000320146    0.90
  5    -76.333836695     -0.273394388     -0.000052372      0.000115505    0.79
  6    -76.333849042     -0.273406735     -0.000012347      0.000030244    0.96
  7    -76.333849961     -0.273407653     -0.000000918      0.000008642    0.87
               --- The Coupled-Cluster iterations have converged ---

----------------------
COUPLED CLUSTER ENERGY
----------------------

E(0)                                       ...    -76.060282879
E(CORR)(strong-pairs)                      ...     -0.273407653
E(CORR)(weak-pairs)                        ...     -0.000159428
E(CORR)(corrected)                         ...     -0.273567081
E(TOT)                                     ...    -76.333849961
Singles Norm <S|S>**1/2                    ...      0.027549089  
T1 diagnostic                              ...      0.009740074  

------------------
LARGEST AMPLITUDES
------------------
   4->  5   4->  5       0.041051
   3->  5   3->  5       0.041051
   4-> 15   4->  5       0.023377
   4->  5   4-> 15       0.023377
   3->  5   3-> 15       0.023377
   3-> 15   3->  5       0.023377
   1->  5   1->  5       0.022505
   2->  5   2->  5       0.022505
   2-> 14   2-> 14       0.022186
   1-> 14   1-> 14       0.022186
   3->  7   3->  7       0.021282
   4->  7   4->  7       0.021282
   2->  5   2-> 14       0.019942
   2-> 14   2->  5       0.019942
   1->  5   1-> 14       0.019942
   1-> 14   1->  5       0.019942


-------------------------------------------
DLPNO BASED TRIPLES CORRECTION
-------------------------------------------

Singles multiplier          ...  1.000000
TCutTNO                     ... 1.000e-09
TCutMP2Pairs                ... 1.000e-05
TCutDOStrong                ... 2.000e-02
TCutMKNStrong               ... 1.000e-02
TCutDOWeak                  ... 4.000e-02
TCutMKNWeak                 ... 1.000e-01

Fragment selection                          .... not used
Fock matrix occ-virt block is zero --> Setting DT_in_Triples to false.
Number of Triples that are to be computed   ...        16

 . . . . . . . . .
10% done  
20% done  
30% done  
40% done  
50% done  
60% done  
70% done  
80% done  
90% done               (      0.344 sec)
Triples timings:
Total time for T0               ...     0.355 sec
Total time for Iterative (T)    ...     0.000 sec
Total time of overall (T)       ...     0.389 sec

Triples List generation         ...     0.000 sec
TNO generation                  ...     0.010 sec
Pair density generation         ...     0.000 sec
Look up tables                  ...     0.000 sec
Generating 3-index integrals    ...     0.045 sec
  Make 4-ind.int. from 3-ind.int...     0.083 sec
  Projecting amplitudes (D + S) ...     0.008 sec
  Downprojecting integrals      ...     0.000 sec
  Energy contr. (sum over a,b,c)...     0.051 sec
Fitting ET(->0)                 ...     0.000 sec

Everything after 3-index        ...     0.299 sec

Timing details:
 TNO integrals                  ...     0.125 sec
   Reading 3-index integrals    ...     0.003 sec
   Sorting integrals            ...     0.045 sec
       Sorting integrals 1      ...     0.000 sec
       Sorting integrals 2      ...     0.002 sec
       Sorting integrals 3      ...     0.001 sec
       Sorting integrals 4      ...     0.000 sec
       Sorting integrals 5      ...     0.000 sec
       Sorting integrals 6      ...     0.041 sec
   Calculating local VM**-1/2   ...     0.001 sec
   Orthogonal. integrals        ...     0.002 sec
   Multipl. 3-index integrals   ...     0.074 sec
   All concerning IRIab (w/TNO) ...     0.036 sec

 Calculate W0/W1                ...     0.157 sec
 W 3-ext contribution           ...     0.074 sec
 W 3-int contribution           ...     0.018 sec
 Sorting W                      ...     0.063 sec

 V exchange contribution        ...     0.016 sec

 Timings for Triples without generation
     of 3-index integrals       ...     0.299 sec
       0 weak pairs             ...     0.299 sec
       1 weak pair              ...     0.000 sec
       2 weak pairs             ...     0.000 sec
       3 weak pairs             ...     0.000 sec
  Extra time for extrapolation  ...     0.000 sec

Number of Triples   (0, 1, 2, 3 weak pairs; overall):     16       0       0       0  (    16)
Number of Atoms     (0, 1, 2, 3 weak pairs; overall):    3.0     0.0     0.0     0.0  (     3)
Number of PAOs      (0, 1, 2, 3 weak pairs; overall):   92.0     0.0     0.0     0.0  (    92)
Number of AuxFcns   (0, 1, 2, 3 weak pairs; overall):  157.8     0.0     0.0     0.0  (   198)
Number of TNOs      (0, 1, 2, 3 weak pairs         ):   77.6     0.0     0.0     0.0
Aver. Number of NTNO, Atoms, PAOs, AuxFcns / Triples:     16    77.6     3.0    92.0   157.8

Triples Correction (T)                     ...     -0.008320569
Final correlation energy                   ...     -0.281887651
E(CCSD)                                    ...    -76.333849961
E(CCSD(T))                                 ...    -76.342170530


Maximum memory used throughout the entire calculation: 290.4 MB


------------------------------------------------------------------------------- 
                                     TIMINGS                                   
------------------------------------------------------------------------------- 


Total execution time                   ...        8.488 sec

Localization of occupied MO's          ...        0.210 sec (  2.5%)
Fock Matrix Formation                  ...        0.114 sec (  1.3%)
Global overlap, Fock, MKN matrices     ...        0.065 sec (  0.8%)
Differential overlap integrals         ...        0.006 sec (  0.1%)
Organizing maps                        ...        0.001 sec (  0.0%)
RI 3-index integral generations        ...        0.497 sec (  5.9%)
RI-PNO integral transformation         ...        0.413 sec (  4.9%)
Initial Guess                          ...        0.032 sec (  0.4%)
DIIS Solver                            ...        0.009 sec (  0.1%)
State Vector Update                    ...        0.001 sec (  0.0%)
Sigma-vector construction              ...        6.668 sec ( 78.6%)
  <D|H|D>(0-ext)                       ...        0.012 sec (  0.2% of sigma)
  <D|H|D>(2-ext Fock)                  ...        0.001 sec (  0.0% of sigma)
  <D|H|D>(2-ext)                       ...        0.056 sec (  0.8% of sigma)
  <D|H|D>(4-ext)                       ...        1.100 sec ( 16.5% of sigma)
  <D|H|D>(4-ext-corr)                  ...        4.536 sec ( 68.0% of sigma)
  CCSD doubles correction              ...        0.003 sec (  0.0% of sigma)
  <S|H|S>                              ...        0.011 sec (  0.2% of sigma)
  <S|H|D>(1-ext)                       ...        0.004 sec (  0.1% of sigma)
  <S|H|D>(3-ext)                       ...        0.022 sec (  0.3% of sigma)
  Fock-dressing                        ...        0.147 sec (  2.2% of sigma)
  Singles amplitudes                   ...        0.003 sec (  0.0% of sigma)
  (ik|jl)-dressing                     ...        0.011 sec (  0.2% of sigma)
  (ij|ab),(ia|jb)-dressing             ...        0.043 sec (  0.6% of sigma)
Total Time for computing (T)           ...        0.389 sec (  4.6% of ALL)


-------------------------   --------------------
FINAL SINGLE POINT ENERGY       -76.342170529769
-------------------------   --------------------


                            ***************************************
                            *     ORCA property calculations      *
                            ***************************************

                                    ---------------------
                                    Active property flags
                                    ---------------------
   (+) Dipole Moment


------------------------------------------------------------------------------
                       ORCA ELECTRIC PROPERTIES CALCULATION
------------------------------------------------------------------------------

Dipole Moment Calculation                       ... on
Quadrupole Moment Calculation                   ... off
Polarizability Calculation                      ... off
GBWName                                         ... water_DLPNO-CCSDT_aug-cc-pVTZ_SPE.gbw
Electron density file                           ... water_DLPNO-CCSDT_aug-cc-pVTZ_SPE.scfp
The origin for moment calculation is the CENTER OF MASS  = ( 0.053747,  0.075996  0.000000)

-------------
DIPOLE MOMENT
-------------
                                X             Y             Z
Electronic contribution:     -0.11556      -0.16342       0.00000
Nuclear contribution   :      0.56817       0.80352       0.00000
                        -----------------------------------------
Total Dipole Moment    :      0.45261       0.64009       0.00000
                        -----------------------------------------
Magnitude (a.u.)       :      0.78395
Magnitude (Debye)      :      1.99264



--------------------
Rotational spectrum 
--------------------
 
Rotational constants in cm-1:    26.943442    14.548736     9.447396 
Rotational constants in MHz : 807744.057798 436160.125777 283225.793833 

 Dipole components along the rotational axes: 
x,y,z [a.u.] :    -0.000000     0.783950     0.000000 
x,y,z [Debye]:    -0.000001     1.992643     0.000000 

 

Timings for individual modules:

Sum of individual times         ...        9.540 sec (=   0.159 min)
GTO integral calculation        ...        0.302 sec (=   0.005 min)   3.2 %
SCF iterations                  ...        0.617 sec (=   0.010 min)   6.5 %
MDCI module                     ...        8.621 sec (=   0.144 min)  90.4 %
                             ****ORCA TERMINATED NORMALLY****
TOTAL RUN TIME: 0 days 0 hours 0 minutes 9 seconds 717 msec
