
                                 *****************
                                 * O   R   C   A *
                                 *****************

                                            #,                                       
                                            ###                                      
                                            ####                                     
                                            #####                                    
                                            ######                                   
                                           ########,                                 
                                     ,,################,,,,,                         
                               ,,#################################,,                 
                          ,,##########################################,,             
                       ,#########################################, ''#####,          
                    ,#############################################,,   '####,        
                  ,##################################################,,,,####,       
                ,###########''''           ''''###############################       
              ,#####''   ,,,,##########,,,,          '''####'''          '####       
            ,##' ,,,,###########################,,,                        '##       
           ' ,,###''''                  '''############,,,                           
         ,,##''                                '''############,,,,        ,,,,,,###''
      ,#''                                            '''#######################'''  
     '                                                          ''''####''''         
             ,#######,   #######,   ,#######,      ##                                
            ,#'     '#,  ##    ##  ,#'     '#,    #''#        ######   ,####,        
            ##       ##  ##   ,#'  ##            #'  '#       #        #'  '#        
            ##       ##  #######   ##           ,######,      #####,   #    #        
            '#,     ,#'  ##    ##  '#,     ,#' ,#      #,         ##   #,  ,#        
             '#######'   ##     ##  '#######'  #'      '#     #####' # '####'        



                  #######################################################
                  #                        -***-                        #
                  #          Department of theory and spectroscopy      #
                  #    Directorship and core code : Frank Neese         #
                  #        Max Planck Institute fuer Kohlenforschung    #
                  #                Kaiser Wilhelm Platz 1               #
                  #                 D-45470 Muelheim/Ruhr               #
                  #                      Germany                        #
                  #                                                     #
                  #                  All rights reserved                #
                  #                        -***-                        #
                  #######################################################


                         Program Version 5.0.1 -  RELEASE  -


 With contributions from (in alphabetic order):
   Daniel Aravena         : Magnetic Suceptibility
   Michael Atanasov       : Ab Initio Ligand Field Theory (pilot matlab implementation)
   Alexander A. Auer      : GIAO ZORA, VPT2 properties, NMR spectrum
   Ute Becker             : Parallelization
   Giovanni Bistoni       : ED, misc. LED, open-shell LED, HFLD
   Martin Brehm           : Molecular dynamics
   Dmytro Bykov           : SCF Hessian
   Vijay G. Chilkuri      : MRCI spin determinant printing, contributions to CSF-ICE
   Dipayan Datta          : RHF DLPNO-CCSD density
   Achintya Kumar Dutta   : EOM-CC, STEOM-CC
   Dmitry Ganyushin       : Spin-Orbit,Spin-Spin,Magnetic field MRCI
   Miquel Garcia          : C-PCM and meta-GGA Hessian, CC/C-PCM, Gaussian charge scheme
   Yang Guo               : DLPNO-NEVPT2, F12-NEVPT2, CIM, IAO-localization
   Andreas Hansen         : Spin unrestricted coupled pair/coupled cluster methods
   Benjamin Helmich-Paris : MC-RPA, TRAH-SCF, COSX integrals
   Lee Huntington         : MR-EOM, pCC
   Robert Izsak           : Overlap fitted RIJCOSX, COSX-SCS-MP3, EOM
   Marcus Kettner         : VPT2
   Christian Kollmar      : KDIIS, OOCD, Brueckner-CCSD(T), CCSD density, CASPT2, CASPT2-K
   Simone Kossmann        : Meta GGA functionals, TD-DFT gradient, OOMP2, MP2 Hessian
   Martin Krupicka        : Initial AUTO-CI
   Lucas Lang             : DCDCAS
   Marvin Lechner         : AUTO-CI (C++ implementation), FIC-MRCC
   Dagmar Lenk            : GEPOL surface, SMD
   Dimitrios Liakos       : Extrapolation schemes; Compound Job, initial MDCI parallelization
   Dimitrios Manganas     : Further ROCIS development; embedding schemes
   Dimitrios Pantazis     : SARC Basis sets
   Anastasios Papadopoulos: AUTO-CI, single reference methods and gradients
   Taras Petrenko         : DFT Hessian,TD-DFT gradient, ASA, ECA, R-Raman, ABS, FL, XAS/XES, NRVS
   Peter Pinski           : DLPNO-MP2, DLPNO-MP2 Gradient
   Christoph Reimann      : Effective Core Potentials
   Marius Retegan         : Local ZFS, SOC
   Christoph Riplinger    : Optimizer, TS searches, QM/MM, DLPNO-CCSD(T), (RO)-DLPNO pert. Triples
   Tobias Risthaus        : Range-separated hybrids, TD-DFT gradient, RPA, STAB
   Michael Roemelt        : Original ROCIS implementation
   Masaaki Saitow         : Open-shell DLPNO-CCSD energy and density
   Barbara Sandhoefer     : DKH picture change effects
   Avijit Sen             : IP-ROCIS
   Kantharuban Sivalingam : CASSCF convergence, NEVPT2, FIC-MRCI
   Bernardo de Souza      : ESD, SOC TD-DFT
   Georgi Stoychev        : AutoAux, RI-MP2 NMR, DLPNO-MP2 response
   Willem Van den Heuvel  : Paramagnetic NMR
   Boris Wezisla          : Elementary symmetry handling
   Frank Wennmohs         : Technical directorship


 We gratefully acknowledge several colleagues who have allowed us to
 interface, adapt or use parts of their codes:
   Stefan Grimme, W. Hujo, H. Kruse, P. Pracht,  : VdW corrections, initial TS optimization,
                  C. Bannwarth, S. Ehlert          DFT functionals, gCP, sTDA/sTD-DF
   Ed Valeev, F. Pavosevic, A. Kumar             : LibInt (2-el integral package), F12 methods
   Garnet Chan, S. Sharma, J. Yang, R. Olivares  : DMRG
   Ulf Ekstrom                                   : XCFun DFT Library
   Mihaly Kallay                                 : mrcc  (arbitrary order and MRCC methods)
   Jiri Pittner, Ondrej Demel                    : Mk-CCSD
   Frank Weinhold                                : gennbo (NPA and NBO analysis)
   Christopher J. Cramer and Donald G. Truhlar   : smd solvation model
   Lars Goerigk                                  : TD-DFT with DH, B97 family of functionals
   V. Asgeirsson, H. Jonsson                     : NEB implementation
   FAccTs GmbH                                   : IRC, NEB, NEB-TS, DLPNO-Multilevel, CI-OPT
                                                   MM, QMMM, 2- and 3-layer-ONIOM, Crystal-QMMM,
                                                   LR-CPCM, SF, NACMEs, symmetry and pop. for TD-DFT,
                                                   nearIR, NL-DFT gradient (VV10), updates on ESD,
                                                   ML-optimized integration grids
   S Lehtola, MJT Oliveira, MAL Marques          : LibXC Library
   Liviu Ungur et al                             : ANISO software


 Your calculation uses the libint2 library for the computation of 2-el integrals
 For citations please refer to: http://libint.valeyev.net

 Your ORCA version has been built with support for libXC version: 5.1.0
 For citations please refer to: https://tddft.org/programs/libxc/

 This ORCA versions uses:
   CBLAS   interface :  Fast vector & matrix operations
   LAPACKE interface :  Fast linear algebra routines
   SCALAPACK package :  Parallel linear algebra routines
   Shared memory     :  Shared parallel matrices
   BLAS/LAPACK       :  OpenBLAS 0.3.15  USE64BITINT DYNAMIC_ARCH NO_AFFINITY Zen SINGLE_THREADED
        Core in use  :  Zen
   Copyright (c) 2011-2014, The OpenBLAS Project




***************************************
The coordinates will be read from file: acetone.xyz
***************************************


================================================================================

----- Orbital basis set information -----
Your calculation utilizes the basis: aug-cc-pVTZ 
    H, B-Ne : Obtained from the ccRepo (grant-hill.group.shef.ac.uk/ccrepo) Feb. 2017
              R. A. Kendall, T. H. Dunning, Jr., R. J. Harrison, J. Chem. Phys. 96, 6796 (1992)
         He : Obtained from the ccRepo (grant-hill.group.shef.ac.uk/ccrepo) Feb. 2017
              D. E. Woon, T. H. Dunning, Jr., J. Chem. Phys. 100, 2975 (1994)
  Li-Be, Na : Obtained from the ccRepo (grant-hill.group.shef.ac.uk/ccrepo) Feb. 2017
              B. P. Prascher, D. E. Woon, K. A. Peterson, T. H. Dunning, Jr., A. K. Wilson, Theor. Chem. Acc. 128, 69 (2011)
         Mg : Obtained from the Peterson Research Group Website (tyr0.chem.wsu.edu/~kipeters) Feb. 2017
              B. P. Prascher, D. E. Woon, K. A. Peterson, T. H. Dunning, Jr., A. K. Wilson, Theor. Chem. Acc. 128, 69 (2011)
      Al-Ar : Obtained from the ccRepo (grant-hill.group.shef.ac.uk/ccrepo) Feb. 2017
              D. E. Woon, T. H. Dunning, Jr., J. Chem. Phys. 98, 1358 (1993)
      Sc-Zn : Obtained from the ccRepo (grant-hill.group.shef.ac.uk/ccrepo) Feb. 2017
              N. B. Balabanov, K. A. Peterson, J. Chem. Phys. 123, 064107 (2005)
              N. B. Balabanov, K. A. Peterson, J. Chem. Phys. 125, 074110 (2006)
      Ga-Kr : Obtained from the ccRepo (grant-hill.group.shef.ac.uk/ccrepo) Feb. 2017
              A. K. Wilson, D. E. Woon, K. A. Peterson, T. H. Dunning, Jr., J. Chem. Phys. 110, 7667 (1999)
     Ag, Au : Obtained from the Peterson Research Group Website (tyr0.chem.wsu.edu/~kipeters) Feb. 2017
              K. A. Peterson, C. Puzzarini, Theor. Chem. Acc. 114, 283 (2005)

----- AuxJ basis set information -----
Your calculation utilizes the auxiliary basis: def2/J
   F. Weigend, Phys. Chem. Chem. Phys. 8, 1057 (2006).

================================================================================
                                        WARNINGS
                       Please study these warnings very carefully!
================================================================================


INFO   : the flag for use of the SHARK integral package has been found!

================================================================================
                                       INPUT FILE
================================================================================
NAME = acetone_B3LYP.inp
|  1> 
|  2> %pal
|  3>   nprocs 6
|  4> end
|  5> %maxcore 2000
|  6> 
|  7> ! B3LYP aug-cc-pVTZ VeryTightSCF
|  8> ! RIJCOSX def2/J
|  9> 
| 10> * xyzfile 0 1 acetone.xyz
| 11> 
| 12> 
| 13>                          ****END OF INPUT****
================================================================================

                       ****************************
                       * Single Point Calculation *
                       ****************************

---------------------------------
CARTESIAN COORDINATES (ANGSTROEM)
---------------------------------
  C      0.106474   -1.346767    0.711222
  C      0.095987   -0.265756   -0.337712
  C      1.322464   -0.164144   -1.207052
  O     -0.847125    0.472222   -0.479154
  H     -0.825316   -1.329454    1.273255
  H      0.237056   -2.325803    0.241198
  H      0.952178   -1.208267    1.390518
  H      1.429999   -1.076538   -1.801306
  H      2.224161   -0.079433   -0.594775
  H      1.240061    0.694030   -1.871333

----------------------------
CARTESIAN COORDINATES (A.U.)
----------------------------
  NO LB      ZA    FRAG     MASS         X           Y           Z
   0 C     6.0000    0    12.011    0.201207   -2.545020    1.344015
   1 C     6.0000    0    12.011    0.181389   -0.502207   -0.638183
   2 C     6.0000    0    12.011    2.499095   -0.310187   -2.280998
   3 O     8.0000    0    15.999   -1.600835    0.892370   -0.905470
   4 H     1.0000    0     1.008   -1.559621   -2.512304    2.406103
   5 H     1.0000    0     1.008    0.447970   -4.395131    0.455799
   6 H     1.0000    0     1.008    1.799356   -2.283293    2.627699
   7 H     1.0000    0     1.008    2.702307   -2.034362   -3.403975
   8 H     1.0000    0     1.008    4.203055   -0.150106   -1.123962
   9 H     1.0000    0     1.008    2.343375    1.311526   -3.536308

--------------------------------
INTERNAL COORDINATES (ANGSTROEM)
--------------------------------
 C      0   0   0     0.000000000000     0.00000000     0.00000000
 C      1   0   0     1.506305223176     0.00000000     0.00000000
 C      2   1   0     1.506759627560   116.39156051     0.00000000
 O      2   1   3     1.205851750715   121.75783307   179.52363273
 H      1   2   3     1.088307404908   110.01363209   180.22482641
 H      1   2   3     1.093839969632   110.11707426   301.35049633
 H      1   2   3     1.093545269888   110.30774712    58.90199323
 H      3   2   1     1.094150055100   109.70166768    63.91864026
 H      3   2   1     1.093213883494   110.69975937   306.40064955
 H      3   2   1     1.088357311069   110.10208651   184.46498394

---------------------------
INTERNAL COORDINATES (A.U.)
---------------------------
 C      0   0   0     0.000000000000     0.00000000     0.00000000
 C      1   0   0     2.846504345898     0.00000000     0.00000000
 C      2   1   0     2.847363045737   116.39156051     0.00000000
 O      2   1   3     2.278729566961   121.75783307   179.52363273
 H      1   2   3     2.056602944794   110.01363209   180.22482641
 H      1   2   3     2.067057976942   110.11707426   301.35049633
 H      1   2   3     2.066501075134   110.30774712    58.90199323
 H      3   2   1     2.067643953555   109.70166768    63.91864026
 H      3   2   1     2.065874845603   110.69975937   306.40064955
 H      3   2   1     2.056697253772   110.10208651   184.46498394

---------------------
BASIS SET INFORMATION
---------------------
There are 3 groups of distinct atoms

 Group   1 Type C   : 19s6p3d2f contracted to 5s4p3d2f pattern {88111/3111/111/11}
 Group   2 Type O   : 19s6p3d2f contracted to 5s4p3d2f pattern {88111/3111/111/11}
 Group   3 Type H   : 6s3p2d contracted to 4s3p2d pattern {3111/111/11}

Atom   0C    basis set group =>   1
Atom   1C    basis set group =>   1
Atom   2C    basis set group =>   1
Atom   3O    basis set group =>   2
Atom   4H    basis set group =>   3
Atom   5H    basis set group =>   3
Atom   6H    basis set group =>   3
Atom   7H    basis set group =>   3
Atom   8H    basis set group =>   3
Atom   9H    basis set group =>   3
---------------------------------
AUXILIARY/J BASIS SET INFORMATION
---------------------------------
There are 3 groups of distinct atoms

 Group   1 Type C   : 12s5p4d2f1g contracted to 6s4p3d1f1g pattern {711111/2111/211/2/1}
 Group   2 Type O   : 12s5p4d2f1g contracted to 6s4p3d1f1g pattern {711111/2111/211/2/1}
 Group   3 Type H   : 5s2p1d contracted to 3s1p1d pattern {311/2/1}

Atom   0C    basis set group =>   1
Atom   1C    basis set group =>   1
Atom   2C    basis set group =>   1
Atom   3O    basis set group =>   2
Atom   4H    basis set group =>   3
Atom   5H    basis set group =>   3
Atom   6H    basis set group =>   3
Atom   7H    basis set group =>   3
Atom   8H    basis set group =>   3
Atom   9H    basis set group =>   3


           ************************************************************
           *        Program running with 6 parallel MPI-processes     *
           *              working on a common directory               *
           ************************************************************
------------------------------------------------------------------------------
                           ORCA GTO INTEGRAL CALCULATION
                           -- RI-GTO INTEGRALS CHOSEN --
------------------------------------------------------------------------------
------------------------------------------------------------------------------
                   ___                                                        
                  /   \      - P O W E R E D   B Y -                         
                 /     \                                                     
                 |  |  |   _    _      __       _____    __    __             
                 |  |  |  | |  | |    /  \     |  _  \  |  |  /  |          
                  \  \/   | |  | |   /    \    | | | |  |  | /  /          
                 / \  \   | |__| |  /  /\  \   | |_| |  |  |/  /          
                |  |  |   |  __  | /  /__\  \  |    /   |      \           
                |  |  |   | |  | | |   __   |  |    \   |  |\   \          
                \     /   | |  | | |  |  |  |  | |\  \  |  | \   \       
                 \___/    |_|  |_| |__|  |__|  |_| \__\ |__|  \__/        
                                                                              
                      - O R C A' S   B I G   F R I E N D -                    
                                      &                                       
                       - I N T E G R A L  F E E D E R -                       
                                                                              
 v1 FN, 2020, v2 2021                                                         
------------------------------------------------------------------------------


Reading SHARK input file acetone_B3LYP.SHARKINP.tmp ... ok
----------------------
SHARK INTEGRAL PACKAGE
----------------------

Number of atoms                             ...     10
Number of basis functions                   ...    322
Number of shells                            ...    110
Maximum angular momentum                    ...      3
Integral batch strategy                     ... SHARK/LIBINT Hybrid
RI-J (if used) integral strategy            ... SPLIT-RIJ (Revised 2003 algorithm where possible)
Printlevel                                  ...      1
Contraction scheme used                     ... SEGMENTED contraction
Coulomb Range Separation                    ... NOT USED
Exchange Range Separation                   ... NOT USED
Finite Nucleus Model                        ... NOT USED
Auxiliary Coulomb fitting basis             ... AVAILABLE
   # of basis functions in Aux-J            ...    262
   # of shells in Aux-J                     ...     90
   Maximum angular momentum in Aux-J        ...      4
Auxiliary J/K fitting basis                 ... NOT available
Auxiliary Correlation fitting basis         ... NOT available
Auxiliary 'external' fitting basis          ... NOT available
Integral threshold                          ...     1.000000e-12
Primitive cut-off                           ...     1.000000e-14
Primitive pair pre-selection threshold      ...     1.000000e-14

Calculating pre-screening integrals         ... done (  0.0 sec) Dimension = 110
Organizing shell pair data                  ... done (  0.0 sec)
Shell pair information
Total number of shell pairs                 ...      6105
Shell pairs after pre-screening             ...      6095
Total number of primitive shell pairs       ...     17645
Primitive shell pairs kept                  ...     15195
          la=0 lb=0:    989 shell pairs
          la=1 lb=0:   1494 shell pairs
          la=1 lb=1:    592 shell pairs
          la=2 lb=0:   1054 shell pairs
          la=2 lb=1:    814 shell pairs
          la=2 lb=2:    300 shell pairs
          la=3 lb=0:    352 shell pairs
          la=3 lb=1:    272 shell pairs
          la=3 lb=2:    192 shell pairs
          la=3 lb=3:     36 shell pairs

Calculating one electron integrals          ... done (  0.0 sec)
Calculating RI/J V-Matrix + Cholesky decomp.... done (  0.0 sec)
Calculating Nuclear repulsion               ... done (  0.0 sec) ENN=    119.897552611036 Eh

SHARK setup successfully completed in   0.2 seconds

Maximum memory used throughout the entire GTOINT-calculation: 17.4 MB


           ************************************************************
           *        Program running with 6 parallel MPI-processes     *
           *              working on a common directory               *
           ************************************************************
-------------------------------------------------------------------------------
                                 ORCA SCF
-------------------------------------------------------------------------------

------------
SCF SETTINGS
------------
Hamiltonian:
 Density Functional     Method          .... DFT(GTOs)
 Exchange Functional    Exchange        .... B88
   X-Alpha parameter    XAlpha          ....  0.666667
   Becke's b parameter  XBeta           ....  0.004200
 Correlation Functional Correlation     .... LYP
 LDA part of GGA corr.  LDAOpt          .... VWN-5
 Gradients option       PostSCFGGA      .... off
 Hybrid DFT is turned on
   Fraction HF Exchange ScalHFX         ....  0.200000
   Scaling of DF-GGA-X  ScalDFX         ....  0.720000
   Scaling of DF-GGA-C  ScalDFC         ....  0.810000
   Scaling of DF-LDA-C  ScalLDAC        ....  1.000000
   Perturbative correction              ....  0.000000
   Density functional embedding theory  .... OFF
   NL short-range parameter             ....  4.800000
 RI-approximation to the Coulomb term is turned on
   Number of AuxJ basis functions       .... 262
   RIJ-COSX (HFX calculated with COS-X)).... on


General Settings:
 Integral files         IntName         .... acetone_B3LYP
 Hartree-Fock type      HFTyp           .... RHF
 Total Charge           Charge          ....    0
 Multiplicity           Mult            ....    1
 Number of Electrons    NEL             ....   32
 Basis Dimension        Dim             ....  322
 Nuclear Repulsion      ENuc            ....    119.8975526110 Eh

Convergence Acceleration:
 DIIS                   CNVDIIS         .... on
   Start iteration      DIISMaxIt       ....    12
   Startup error        DIISStart       ....  0.200000
   # of expansion vecs  DIISMaxEq       ....     5
   Bias factor          DIISBfac        ....   1.050
   Max. coefficient     DIISMaxC        ....  10.000
 Trust-Rad. Augm. Hess. CNVTRAH         .... auto
   Auto Start mean grad. ratio tolernc. ....  1.125000
   Auto Start start iteration           ....    20
   Auto Start num. interpolation iter.  ....    10
   Max. Number of Micro iterations      ....    16
   Max. Number of Macro iterations      .... Maxiter - #DIIS iter
   Number of Davidson start vectors     ....     2
   Converg. threshold I  (grad. norm)   ....   2.000e-06
   Converg. threshold II (energy diff.) ....   1.000e-09
   Grad. Scal. Fac. for Micro threshold ....   0.100
   Minimum threshold for Micro iter.    ....   0.010
   NR start threshold (gradient norm)   ....   0.001
   Initial trust radius                 ....   0.400
   Minimum AH scaling param. (alpha)    ....   1.000
   Maximum AH scaling param. (alpha)    .... 1000.000
   Orbital update algorithm             .... Taylor
   White noise on init. David. guess    .... on
   Maximum white noise                  ....   0.010
   Quad. conv. algorithm                .... NR
 SOSCF                  CNVSOSCF        .... on
   Start iteration      SOSCFMaxIt      ....   150
   Startup grad/error   SOSCFStart      ....  0.003300
 Level Shifting         CNVShift        .... on
   Level shift para.    LevelShift      ....    0.2500
   Turn off err/grad.   ShiftErr        ....    0.0010
 Zerner damping         CNVZerner       .... off
 Static damping         CNVDamp         .... on
   Fraction old density DampFac         ....    0.7000
   Max. Damping (<1)    DampMax         ....    0.9800
   Min. Damping (>=0)   DampMin         ....    0.0000
   Turn off err/grad.   DampErr         ....    0.1000
 Fernandez-Rico         CNVRico         .... off

SCF Procedure:
 Maximum # iterations   MaxIter         ....   125
 SCF integral mode      SCFMode         .... Direct
   Integral package                     .... SHARK and LIBINT hybrid scheme
 Reset frequency        DirectResetFreq ....    20
 Integral Threshold     Thresh          ....  1.000e-12 Eh
 Primitive CutOff       TCut            ....  1.000e-14 Eh

Convergence Tolerance:
 Convergence Check Mode ConvCheckMode   .... Total+1el-Energy
 Convergence forced     ConvForced      .... 0
 Energy Change          TolE            ....  1.000e-09 Eh
 1-El. energy change                    ....  1.000e-06 Eh
 Orbital Gradient       TolG            ....  2.000e-06
 Orbital Rotation angle TolX            ....  2.000e-06
 DIIS Error             TolErr          ....  1.000e-08


Diagonalization of the overlap matrix:
Smallest eigenvalue                        ... 1.917e-05
Time for diagonalization                   ...    0.010 sec
Threshold for overlap eigenvalues          ... 1.000e-08
Number of eigenvalues below threshold      ... 0
Time for construction of square roots      ...    0.007 sec
Total time needed                          ...    0.017 sec

Time for model grid setup =    0.052 sec

------------------------------
INITIAL GUESS: MODEL POTENTIAL
------------------------------
Loading Hartree-Fock densities                     ... done
Calculating cut-offs                               ... done
Initializing the effective Hamiltonian             ... done
Setting up the integral package (SHARK)            ... done
Starting the Coulomb interaction                   ... done (   0.0 sec)
Reading the grid                                   ... done
Mapping shells                                     ... done
Starting the XC term evaluation                    ... done (   0.1 sec)
  promolecular density results
     # of electrons  =     31.994481357
     EX              =    -25.377147746
     EC              =     -1.050184377
     EX+EC           =    -26.427332123
Transforming the Hamiltonian                       ... done (   0.0 sec)
Diagonalizing the Hamiltonian                      ... done (   0.0 sec)
Back transforming the eigenvectors                 ... done (   0.0 sec)
Now organizing SCF variables                       ... done
                      ------------------
                      INITIAL GUESS DONE (   0.2 sec)
                      ------------------
-------------------
DFT GRID GENERATION
-------------------

General Integration Accuracy     IntAcc      ... 4.388
Radial Grid Type                 RadialGrid  ... OptM3 with GC (2021)
Angular Grid (max. ang.)         AngularGrid ... 4 (Lebedev-302)
Angular grid pruning method      GridPruning ... 4 (adaptive)
Weight generation scheme         WeightScheme... Becke
Basis function cutoff            BFCut       ... 1.0000e-12
Integration weight cutoff        WCut        ... 1.0000e-14
Angular grids for H and He will be reduced by one unit
Partially contracted basis set               ... off
Rotationally invariant grid construction     ... off

Total number of grid points                  ...    46162
Total number of batches                      ...      726
Average number of points per batch           ...       63
Average number of grid points per atom       ...     4616
Time for grid setup =    0.244 sec

--------------------
COSX GRID GENERATION
--------------------

GRIDX 1
-------
General Integration Accuracy     IntAcc      ... 3.816
Radial Grid Type                 RadialGrid  ... OptM3 with GC (2021)
Angular Grid (max. ang.)         AngularGrid ... 1 (Lebedev-50)
Angular grid pruning method      GridPruning ... 4 (adaptive)
Weight generation scheme         WeightScheme... Becke
Basis function cutoff            BFCut       ... 1.0000e-12
Integration weight cutoff        WCut        ... 1.0000e-14
Angular grids for H and He will be reduced by one unit
Partially contracted basis set               ... on
Rotationally invariant grid construction     ... off

Total number of grid points                  ...     5795
Total number of batches                      ...       95
Average number of points per batch           ...       61
Average number of grid points per atom       ...      580
UseSFitting                                  ... on

GRIDX 2
-------
General Integration Accuracy     IntAcc      ... 4.020
Radial Grid Type                 RadialGrid  ... OptM3 with GC (2021)
Angular Grid (max. ang.)         AngularGrid ... 2 (Lebedev-110)
Angular grid pruning method      GridPruning ... 4 (adaptive)
Weight generation scheme         WeightScheme... Becke
Basis function cutoff            BFCut       ... 1.0000e-12
Integration weight cutoff        WCut        ... 1.0000e-14
Angular grids for H and He will be reduced by one unit
Partially contracted basis set               ... on
Rotationally invariant grid construction     ... off

Total number of grid points                  ...    14013
Total number of batches                      ...      224
Average number of points per batch           ...       62
Average number of grid points per atom       ...     1401
UseSFitting                                  ... on

GRIDX 3
-------
General Integration Accuracy     IntAcc      ... 4.338
Radial Grid Type                 RadialGrid  ... OptM3 with GC (2021)
Angular Grid (max. ang.)         AngularGrid ... 3 (Lebedev-194)
Angular grid pruning method      GridPruning ... 4 (adaptive)
Weight generation scheme         WeightScheme... Becke
Basis function cutoff            BFCut       ... 1.0000e-12
Integration weight cutoff        WCut        ... 1.0000e-14
Angular grids for H and He will be reduced by one unit
Partially contracted basis set               ... on
Rotationally invariant grid construction     ... off

Total number of grid points                  ...    31534
Total number of batches                      ...      499
Average number of points per batch           ...       63
Average number of grid points per atom       ...     3153
UseSFitting                                  ... on

Time for X-Grid setup             =    0.327 sec

 re-compute Schwartz prescreening matrix in partically contracted basis (1) ...done (   0.081 sec)
--------------
SCF ITERATIONS
--------------
ITER       Energy         Delta-E        Max-DP      RMS-DP      [F,P]     Damp
               ***  Starting incremental Fock matrix formation  ***
  0   -192.9265453762   0.000000000000 0.03419761  0.00080882  0.3003221 0.7000
  1   -193.0191531715  -0.092607795288 0.01938086  0.00055524  0.1086392 0.7000
                               ***Turning on DIIS***
  2   -193.0524115143  -0.033258342768 0.03429303  0.00093722  0.0448143 0.0000
  3   -193.1051749413  -0.052763427009 0.01491316  0.00035099  0.0578149 0.0000
  4   -193.1175481602  -0.012373218901 0.00760972  0.00011788  0.0159426 0.0000
  5   -193.1185680862  -0.001019926024 0.00195478  0.00004033  0.0055259 0.0000
                      *** Initiating the SOSCF procedure ***
                           *** Shutting down DIIS ***
                      *** Re-Reading the Fockian *** 
                      *** Removing any level shift *** 
ITER      Energy       Delta-E        Grad      Rot      Max-DP    RMS-DP
  6   -193.11862321  -0.0000551266  0.000417  0.000417  0.002703  0.000041
               *** Restarting incremental Fock matrix formation ***
  7   -193.11863297  -0.0000097523  0.000120  0.000361  0.000821  0.000015
  8   -193.11863276   0.0000002074  0.000236  0.000240  0.000117  0.000003
  9   -193.11863310  -0.0000003444  0.000027  0.000049  0.000095  0.000002
 10   -193.11863310   0.0000000070  0.000027  0.000025  0.000037  0.000001
 11   -193.11863312  -0.0000000218  0.000001  0.000001  0.000002  0.000000
                  ***Gradient check signals convergence***
              ***Rediagonalizing the Fockian in SOSCF/NRSCF***

               *****************************************************
               *                     SUCCESS                       *
               *           SCF CONVERGED AFTER  12 CYCLES          *
               *****************************************************

Old exchange energy                            =     -5.176478306 Eh
New exchange energy                            =     -5.176476284 Eh
Exchange energy change after final integration =      0.000002021 Eh
Total energy after final integration           =   -193.118631096 Eh
Final COS-X integration done in                =     2.531 sec

----------------
TOTAL SCF ENERGY
----------------

Total Energy       :         -193.11863110 Eh           -5255.02511 eV

Components:
Nuclear Repulsion  :          119.89755261 Eh            3262.57827 eV
Electronic Energy  :         -313.01618371 Eh           -8517.60339 eV
One Electron Energy:         -498.35679100 Eh          -13560.97771 eV
Two Electron Energy:          185.34060729 Eh            5043.37432 eV
Max COSX asymmetry :            0.00000388 Eh               0.00011 eV

Virial components:
Potential Energy   :         -385.15196464 Eh          -10480.51778 eV
Kinetic Energy     :          192.03333354 Eh            5225.49266 eV
Virial Ratio       :            2.00565161


DFT components:
N(Alpha)           :       15.999988367330 electrons
N(Beta)            :       15.999988367330 electrons
N(Total)           :       31.999976734661 electrons
E(X)               :      -20.570522314013 Eh       
E(C)               :       -1.248940678012 Eh       
E(XC)              :      -21.819462992025 Eh       
DFET-embed. en.    :        0.000000000000 Eh       

---------------
SCF CONVERGENCE
---------------

  Last Energy change         ...    0.0000e+00  Tolerance :   1.0000e-09
  Last MAX-Density change    ...    2.4425e-15  Tolerance :   1.0000e-08
  Last RMS-Density change    ...    1.2141e-17  Tolerance :   1.0000e-09
  Last Orbital Gradient      ...    4.0673e-07  Tolerance :   2.0000e-06
  Last Orbital Rotation      ...    4.2929e-07  Tolerance :   2.0000e-06

             **** THE GBW FILE WAS UPDATED (acetone_B3LYP.gbw) ****
             **** DENSITY acetone_B3LYP.scfp WAS UPDATED ****
             **** ENERGY FILE WAS UPDATED (acetone_B3LYP.en.tmp) ****
             **** THE GBW FILE WAS UPDATED (acetone_B3LYP.gbw) ****
             **** DENSITY acetone_B3LYP.scfp WAS UPDATED ****
----------------
ORBITAL ENERGIES
----------------

  NO   OCC          E(Eh)            E(eV) 
   0   2.0000     -19.118418      -520.2386 
   1   2.0000     -10.265124      -279.3282 
   2   2.0000     -10.178358      -276.9672 
   3   2.0000     -10.178261      -276.9646 
   4   2.0000      -1.048625       -28.5345 
   5   2.0000      -0.775424       -21.1003 
   6   2.0000      -0.715395       -19.4669 
   7   2.0000      -0.536230       -14.5916 
   8   2.0000      -0.466854       -12.7037 
   9   2.0000      -0.466132       -12.6841 
  10   2.0000      -0.456681       -12.4269 
  11   2.0000      -0.407342       -11.0844 
  12   2.0000      -0.401457       -10.9242 
  13   2.0000      -0.383724       -10.4417 
  14   2.0000      -0.357035        -9.7154 
  15   2.0000      -0.254859        -6.9351 
  16   0.0000      -0.023752        -0.6463 
  17   0.0000      -0.014924        -0.4061 
  18   0.0000       0.009930         0.2702 
  19   0.0000       0.019320         0.5257 
  20   0.0000       0.025117         0.6835 
  21   0.0000       0.038610         1.0506 
  22   0.0000       0.041161         1.1200 
  23   0.0000       0.042070         1.1448 
  24   0.0000       0.067362         1.8330 
  25   0.0000       0.075799         2.0626 
  26   0.0000       0.077947         2.1210 
  27   0.0000       0.087451         2.3797 
  28   0.0000       0.091691         2.4950 
  29   0.0000       0.092287         2.5112 
  30   0.0000       0.103005         2.8029 
  31   0.0000       0.106488         2.8977 
  32   0.0000       0.109408         2.9772 
  33   0.0000       0.112916         3.0726 
  34   0.0000       0.116178         3.1614 
  35   0.0000       0.133647         3.6367 
  36   0.0000       0.137840         3.7508 
  37   0.0000       0.149118         4.0577 
  38   0.0000       0.175452         4.7743 
  39   0.0000       0.184123         5.0102 
  40   0.0000       0.187641         5.1060 
  41   0.0000       0.206926         5.6307 
  42   0.0000       0.208751         5.6804 
  43   0.0000       0.215737         5.8705 
  44   0.0000       0.233575         6.3559 
  45   0.0000       0.250980         6.8295 
  46   0.0000       0.254881         6.9357 
  47   0.0000       0.262705         7.1486 
  48   0.0000       0.272408         7.4126 
  49   0.0000       0.274606         7.4724 
  50   0.0000       0.277568         7.5530 
  51   0.0000       0.279716         7.6115 
  52   0.0000       0.288269         7.8442 
  53   0.0000       0.290533         7.9058 
  54   0.0000       0.300494         8.1769 
  55   0.0000       0.311939         8.4883 
  56   0.0000       0.312574         8.5056 
  57   0.0000       0.321913         8.7597 
  58   0.0000       0.331457         9.0194 
  59   0.0000       0.333078         9.0635 
  60   0.0000       0.336521         9.1572 
  61   0.0000       0.337983         9.1970 
  62   0.0000       0.348145         9.4735 
  63   0.0000       0.355265         9.6673 
  64   0.0000       0.360001         9.7961 
  65   0.0000       0.367535        10.0011 
  66   0.0000       0.402074        10.9410 
  67   0.0000       0.404027        10.9941 
  68   0.0000       0.408616        11.1190 
  69   0.0000       0.420536        11.4434 
  70   0.0000       0.424911        11.5624 
  71   0.0000       0.435983        11.8637 
  72   0.0000       0.445475        12.1220 
  73   0.0000       0.457501        12.4492 
  74   0.0000       0.470671        12.8076 
  75   0.0000       0.495321        13.4784 
  76   0.0000       0.500760        13.6264 
  77   0.0000       0.517004        14.0684 
  78   0.0000       0.528383        14.3780 
  79   0.0000       0.533553        14.5187 
  80   0.0000       0.540707        14.7134 
  81   0.0000       0.553991        15.0749 
  82   0.0000       0.611108        16.6291 
  83   0.0000       0.625648        17.0247 
  84   0.0000       0.633417        17.2361 
  85   0.0000       0.636940        17.3320 
  86   0.0000       0.643249        17.5037 
  87   0.0000       0.663400        18.0520 
  88   0.0000       0.669810        18.2264 
  89   0.0000       0.674379        18.3508 
  90   0.0000       0.691587        18.8191 
  91   0.0000       0.694381        18.8951 
  92   0.0000       0.709098        19.2955 
  93   0.0000       0.737638        20.0721 
  94   0.0000       0.742297        20.1989 
  95   0.0000       0.744229        20.2515 
  96   0.0000       0.755981        20.5713 
  97   0.0000       0.756815        20.5940 
  98   0.0000       0.763998        20.7894 
  99   0.0000       0.766983        20.8707 
 100   0.0000       0.774612        21.0783 
 101   0.0000       0.792166        21.5559 
 102   0.0000       0.802971        21.8499 
 103   0.0000       0.811633        22.0856 
 104   0.0000       0.823517        22.4090 
 105   0.0000       0.857446        23.3323 
 106   0.0000       0.865968        23.5642 
 107   0.0000       0.874271        23.7901 
 108   0.0000       0.875145        23.8139 
 109   0.0000       0.887754        24.1570 
 110   0.0000       0.892093        24.2751 
 111   0.0000       0.922579        25.1046 
 112   0.0000       0.925750        25.1909 
 113   0.0000       0.936305        25.4782 
 114   0.0000       0.948563        25.8117 
 115   0.0000       0.954957        25.9857 
 116   0.0000       0.968073        26.3426 
 117   0.0000       0.977430        26.5972 
 118   0.0000       0.989989        26.9390 
 119   0.0000       1.006269        27.3820 
 120   0.0000       1.023270        27.8446 
 121   0.0000       1.030719        28.0473 
 122   0.0000       1.040497        28.3134 
 123   0.0000       1.071433        29.1552 
 124   0.0000       1.085532        29.5388 
 125   0.0000       1.098576        29.8938 
 126   0.0000       1.100725        29.9523 
 127   0.0000       1.113054        30.2877 
 128   0.0000       1.119911        30.4743 
 129   0.0000       1.128487        30.7077 
 130   0.0000       1.143131        31.1062 
 131   0.0000       1.163195        31.6521 
 132   0.0000       1.170773        31.8583 
 133   0.0000       1.181457        32.1491 
 134   0.0000       1.203036        32.7363 
 135   0.0000       1.236382        33.6437 
 136   0.0000       1.259231        34.2654 
 137   0.0000       1.262302        34.3490 
 138   0.0000       1.303339        35.4657 
 139   0.0000       1.307639        35.5827 
 140   0.0000       1.311941        35.6997 
 141   0.0000       1.328132        36.1403 
 142   0.0000       1.349100        36.7109 
 143   0.0000       1.353566        36.8324 
 144   0.0000       1.360379        37.0178 
 145   0.0000       1.390053        37.8253 
 146   0.0000       1.400485        38.1091 
 147   0.0000       1.412188        38.4276 
 148   0.0000       1.419117        38.6161 
 149   0.0000       1.444946        39.3190 
 150   0.0000       1.462269        39.7904 
 151   0.0000       1.480525        40.2871 
 152   0.0000       1.483235        40.3609 
 153   0.0000       1.489669        40.5360 
 154   0.0000       1.513965        41.1971 
 155   0.0000       1.515333        41.2343 
 156   0.0000       1.554445        42.2986 
 157   0.0000       1.573434        42.8153 
 158   0.0000       1.579180        42.9717 
 159   0.0000       1.581566        43.0366 
 160   0.0000       1.594730        43.3948 
 161   0.0000       1.625214        44.2243 
 162   0.0000       1.633129        44.4397 
 163   0.0000       1.655679        45.0533 
 164   0.0000       1.663526        45.2668 
 165   0.0000       1.674820        45.5742 
 166   0.0000       1.720974        46.8301 
 167   0.0000       1.723041        46.8863 
 168   0.0000       1.743880        47.4534 
 169   0.0000       1.770834        48.1868 
 170   0.0000       1.772131        48.2221 
 171   0.0000       1.799236        48.9597 
 172   0.0000       1.828031        49.7433 
 173   0.0000       1.873442        50.9789 
 174   0.0000       1.880538        51.1721 
 175   0.0000       1.941144        52.8212 
 176   0.0000       1.966308        53.5060 
 177   0.0000       1.984688        54.0061 
 178   0.0000       1.988414        54.1075 
 179   0.0000       1.996112        54.3170 
 180   0.0000       2.003449        54.5166 
 181   0.0000       2.007217        54.6191 
 182   0.0000       2.034080        55.3501 
 183   0.0000       2.087451        56.8024 
 184   0.0000       2.101364        57.1810 
 185   0.0000       2.119855        57.6842 
 186   0.0000       2.158382        58.7326 
 187   0.0000       2.188241        59.5451 
 188   0.0000       2.244918        61.0873 
 189   0.0000       2.252492        61.2934 
 190   0.0000       2.273065        61.8532 
 191   0.0000       2.367550        64.4243 
 192   0.0000       2.388862        65.0042 
 193   0.0000       2.401367        65.3445 
 194   0.0000       2.408445        65.5371 
 195   0.0000       2.431051        66.1523 
 196   0.0000       2.516977        68.4904 
 197   0.0000       2.524152        68.6857 
 198   0.0000       2.584581        70.3300 
 199   0.0000       2.667966        72.5991 
 200   0.0000       2.676434        72.8295 
 201   0.0000       2.740710        74.5785 
 202   0.0000       2.824652        76.8627 
 203   0.0000       2.828943        76.9794 
 204   0.0000       2.830471        77.0210 
 205   0.0000       2.865946        77.9864 
 206   0.0000       2.987585        81.2963 
 207   0.0000       3.035645        82.6041 
 208   0.0000       3.067666        83.4754 
 209   0.0000       3.082154        83.8697 
 210   0.0000       3.103391        84.4476 
 211   0.0000       3.121552        84.9418 
 212   0.0000       3.140239        85.4503 
 213   0.0000       3.156551        85.8941 
 214   0.0000       3.192324        86.8676 
 215   0.0000       3.228791        87.8599 
 216   0.0000       3.271822        89.0308 
 217   0.0000       3.279901        89.2506 
 218   0.0000       3.283069        89.3369 
 219   0.0000       3.304373        89.9166 
 220   0.0000       3.341887        90.9374 
 221   0.0000       3.359087        91.4054 
 222   0.0000       3.373825        91.8064 
 223   0.0000       3.378161        91.9244 
 224   0.0000       3.397722        92.4567 
 225   0.0000       3.455278        94.0229 
 226   0.0000       3.470481        94.4366 
 227   0.0000       3.536196        96.2248 
 228   0.0000       3.548803        96.5678 
 229   0.0000       3.575320        97.2894 
 230   0.0000       3.585263        97.5600 
 231   0.0000       3.612614        98.3042 
 232   0.0000       3.628451        98.7352 
 233   0.0000       3.632599        98.8480 
 234   0.0000       3.634814        98.9083 
 235   0.0000       3.660460        99.6062 
 236   0.0000       3.716226       101.1237 
 237   0.0000       3.723913       101.3328 
 238   0.0000       3.755301       102.1869 
 239   0.0000       3.759114       102.2907 
 240   0.0000       3.808755       103.6415 
 241   0.0000       3.819577       103.9360 
 242   0.0000       3.827358       104.1477 
 243   0.0000       3.843886       104.5975 
 244   0.0000       3.857277       104.9619 
 245   0.0000       3.860809       105.0580 
 246   0.0000       3.902615       106.1955 
 247   0.0000       3.931142       106.9718 
 248   0.0000       3.978007       108.2471 
 249   0.0000       4.029861       109.6581 
 250   0.0000       4.055663       110.3602 
 251   0.0000       4.095336       111.4397 
 252   0.0000       4.123837       112.2153 
 253   0.0000       4.134245       112.4985 
 254   0.0000       4.147386       112.8561 
 255   0.0000       4.203983       114.3962 
 256   0.0000       4.213968       114.6679 
 257   0.0000       4.294380       116.8560 
 258   0.0000       4.297491       116.9407 
 259   0.0000       4.327637       117.7610 
 260   0.0000       4.352477       118.4369 
 261   0.0000       4.404256       119.8459 
 262   0.0000       4.419660       120.2651 
 263   0.0000       4.444792       120.9489 
 264   0.0000       4.474125       121.7471 
 265   0.0000       4.488356       122.1344 
 266   0.0000       4.498420       122.4082 
 267   0.0000       4.504356       122.5698 
 268   0.0000       4.555436       123.9597 
 269   0.0000       4.596926       125.0887 
 270   0.0000       4.629648       125.9791 
 271   0.0000       4.643642       126.3599 
 272   0.0000       4.714909       128.2992 
 273   0.0000       4.805978       130.7773 
 274   0.0000       4.824874       131.2915 
 275   0.0000       4.843395       131.7955 
 276   0.0000       4.871672       132.5649 
 277   0.0000       4.906317       133.5077 
 278   0.0000       4.908973       133.5799 
 279   0.0000       4.974865       135.3730 
 280   0.0000       5.010459       136.3415 
 281   0.0000       5.019436       136.5858 
 282   0.0000       5.056422       137.5922 
 283   0.0000       5.063277       137.7788 
 284   0.0000       5.109602       139.0393 
 285   0.0000       5.173326       140.7734 
 286   0.0000       5.253554       142.9565 
 287   0.0000       5.262083       143.1886 
 288   0.0000       5.320400       144.7755 
 289   0.0000       5.353631       145.6797 
 290   0.0000       5.361084       145.8825 
 291   0.0000       5.397436       146.8717 
 292   0.0000       5.478653       149.0817 
 293   0.0000       5.555266       151.1665 
 294   0.0000       5.611533       152.6976 
 295   0.0000       5.621701       152.9743 
 296   0.0000       5.745165       156.3339 
 297   0.0000       5.756251       156.6356 
 298   0.0000       5.761567       156.7802 
 299   0.0000       5.765155       156.8778 
 300   0.0000       5.878709       159.9678 
 301   0.0000       5.995325       163.1411 
 302   0.0000       6.212091       169.0396 
 303   0.0000       6.294210       171.2742 
 304   0.0000       6.302209       171.4918 
 305   0.0000       6.335021       172.3847 
 306   0.0000       6.352649       172.8644 
 307   0.0000       6.374833       173.4680 
 308   0.0000       6.578671       179.0147 
 309   0.0000       6.612557       179.9368 
 310   0.0000       6.800803       185.0593 
 311   0.0000       6.844152       186.2388 
 312   0.0000       6.936275       188.7456 
 313   0.0000       7.051145       191.8714 
 314   0.0000       7.093998       193.0375 
 315   0.0000       7.154951       194.6961 
 316   0.0000       7.308263       198.8680 
 317   0.0000       7.412197       201.6961 
 318   0.0000      14.697175       399.9305 
 319   0.0000      16.240747       441.9332 
 320   0.0000      16.436611       447.2629 
 321   0.0000      18.583882       505.6931 

                    ********************************
                    * MULLIKEN POPULATION ANALYSIS *
                    ********************************

-----------------------
MULLIKEN ATOMIC CHARGES
-----------------------
   0 C :   -0.622553
   1 C :    0.584016
   2 C :   -0.626699
   3 O :   -0.644000
   4 H :    0.196232
   5 H :    0.229135
   6 H :    0.228017
   7 H :    0.225835
   8 H :    0.234164
   9 H :    0.195855
Sum of atomic charges:   -0.0000000

--------------------------------
MULLIKEN REDUCED ORBITAL CHARGES
--------------------------------
  0 C s       :     3.295097  s :     3.295097
      pz      :     1.032999  p :     3.224353
      px      :     1.162669
      py      :     1.028685
      dz2     :     0.012998  d :     0.098995
      dxz     :     0.031758
      dyz     :     0.011681
      dx2y2   :     0.028241
      dxy     :     0.014317
      f0      :    -0.000815  f :     0.004108
      f+1     :     0.001132
      f-1     :    -0.000941
      f+2     :     0.004427
      f-2     :    -0.000433
      f+3     :    -0.000604
      f-3     :     0.001341
  1 C s       :     3.262747  s :     3.262747
      pz      :     0.718287  p :     2.028810
      px      :     0.656232
      py      :     0.654290
      dz2     :     0.015208  d :     0.120249
      dxz     :     0.033784
      dyz     :     0.026907
      dx2y2   :     0.047578
      dxy     :    -0.003228
      f0      :     0.003450  f :     0.004178
      f+1     :    -0.000463
      f-1     :    -0.001401
      f+2     :    -0.002854
      f-2     :    -0.000502
      f+3     :     0.004181
      f-3     :     0.001768
  2 C s       :     3.297925  s :     3.297925
      pz      :     1.069975  p :     3.226427
      px      :     1.004234
      py      :     1.152218
      dz2     :     0.010039  d :     0.098424
      dxz     :     0.020216
      dyz     :     0.024243
      dx2y2   :     0.028098
      dxy     :     0.015828
      f0      :    -0.001150  f :     0.003924
      f+1     :     0.000128
      f-1     :     0.000236
      f+2     :     0.004523
      f-2     :     0.000799
      f+3     :    -0.000156
      f-3     :    -0.000455
  3 O s       :     4.019801  s :     4.019801
      pz      :     1.651296  p :     4.564864
      px      :     1.456047
      py      :     1.457521
      dz2     :     0.003763  d :     0.054203
      dxz     :     0.013360
      dyz     :     0.008102
      dx2y2   :     0.019366
      dxy     :     0.009612
      f0      :     0.000973  f :     0.005131
      f+1     :     0.000208
      f-1     :     0.000154
      f+2     :     0.000360
      f-2     :     0.001311
      f+3     :     0.001814
      f-3     :     0.000311
  4 H s       :     0.757445  s :     0.757445
      pz      :     0.021568  p :     0.042920
      px      :     0.008766
      py      :     0.012585
      dz2     :     0.000780  d :     0.003404
      dxz     :     0.000160
      dyz     :     0.000903
      dx2y2   :    -0.000386
      dxy     :     0.001947
  5 H s       :     0.726824  s :     0.726824
      pz      :     0.008118  p :     0.040472
      px      :     0.012415
      py      :     0.019939
      dz2     :     0.000609  d :     0.003570
      dxz     :     0.000488
      dyz     :     0.000741
      dx2y2   :     0.000742
      dxy     :     0.000990
  6 H s       :     0.729318  s :     0.729318
      pz      :     0.017340  p :     0.038984
      px      :     0.010408
      py      :     0.011236
      dz2     :     0.001133  d :     0.003682
      dxz     :    -0.000753
      dyz     :     0.002138
      dx2y2   :    -0.000095
      dxy     :     0.001258
  7 H s       :     0.730198  s :     0.730198
      pz      :     0.016334  p :     0.040382
      px      :     0.013249
      py      :     0.010800
      dz2     :     0.000610  d :     0.003584
      dxz     :     0.002085
      dyz     :    -0.000679
      dx2y2   :     0.000244
      dxy     :     0.001324
  8 H s       :     0.723001  s :     0.723001
      pz      :     0.007347  p :     0.039162
      px      :     0.019068
      py      :     0.012746
      dz2     :     0.001742  d :     0.003673
      dxz     :    -0.000904
      dyz     :     0.000501
      dx2y2   :     0.001603
      dxy     :     0.000731
  9 H s       :     0.757667  s :     0.757667
      pz      :     0.021141  p :     0.042989
      px      :     0.011246
      py      :     0.010602
      dz2     :     0.001325  d :     0.003489
      dxz     :     0.001203
      dyz     :    -0.000764
      dx2y2   :     0.000334
      dxy     :     0.001391


                     *******************************
                     * LOEWDIN POPULATION ANALYSIS *
                     *******************************

----------------------
LOEWDIN ATOMIC CHARGES
----------------------
   0 C :    0.560862
   1 C :   -0.567827
   2 C :    0.561309
   3 O :    0.495089
   4 H :   -0.181923
   5 H :   -0.170807
   6 H :   -0.171955
   7 H :   -0.170244
   8 H :   -0.172878
   9 H :   -0.181627

-------------------------------
LOEWDIN REDUCED ORBITAL CHARGES
-------------------------------
  0 C s       :     2.466120  s :     2.466120
      pz      :     0.765495  p :     2.317173
      px      :     0.786352
      py      :     0.765326
      dz2     :     0.055775  d :     0.476005
      dxz     :     0.135528
      dyz     :     0.119912
      dx2y2   :     0.116020
      dxy     :     0.048770
      f0      :     0.026243  f :     0.179839
      f+1     :     0.013796
      f-1     :     0.032844
      f+2     :     0.032109
      f-2     :     0.033521
      f+3     :     0.023301
      f-3     :     0.018024
  1 C s       :     2.499537  s :     2.499537
      pz      :     0.685737  p :     2.212901
      px      :     0.808098
      py      :     0.719066
      dz2     :     0.182433  d :     1.228280
      dxz     :     0.266204
      dyz     :     0.205195
      dx2y2   :     0.313633
      dxy     :     0.260814
      f0      :     0.061366  f :     0.627109
      f+1     :     0.102555
      f-1     :     0.061567
      f+2     :     0.036271
      f-2     :     0.142434
      f+3     :     0.113052
      f-3     :     0.109865
  2 C s       :     2.466175  s :     2.466175
      pz      :     0.769465  p :     2.317282
      px      :     0.765524
      py      :     0.782294
      dz2     :     0.046128  d :     0.475619
      dxz     :     0.129482
      dyz     :     0.120826
      dx2y2   :     0.126390
      dxy     :     0.052793
      f0      :     0.021169  f :     0.179614
      f+1     :     0.037355
      f-1     :     0.009048
      f+2     :     0.033317
      f-2     :     0.025413
      f+3     :     0.022673
      f-3     :     0.030639
  3 O s       :     3.199278  s :     3.199278
      pz      :     1.316231  p :     4.011205
      px      :     1.386604
      py      :     1.308371
      dz2     :     0.023148  d :     0.217243
      dxz     :     0.040089
      dyz     :     0.033565
      dx2y2   :     0.061344
      dxy     :     0.059097
      f0      :     0.009437  f :     0.077185
      f+1     :     0.008382
      f-1     :     0.004429
      f+2     :     0.001916
      f-2     :     0.015225
      f+3     :     0.019653
      f-3     :     0.018144
  4 H s       :     0.637728  s :     0.637728
      pz      :     0.098355  p :     0.314899
      px      :     0.132343
      py      :     0.084201
      dz2     :     0.038181  d :     0.229295
      dxz     :     0.055888
      dyz     :     0.036652
      dx2y2   :     0.048693
      dxy     :     0.049881
  5 H s       :     0.627878  s :     0.627878
      pz      :     0.099550  p :     0.318567
      px      :     0.089503
      py      :     0.129513
      dz2     :     0.027210  d :     0.224362
      dxz     :     0.030632
      dyz     :     0.065806
      dx2y2   :     0.046416
      dxy     :     0.054298
  6 H s       :     0.628155  s :     0.628155
      pz      :     0.104365  p :     0.319084
      px      :     0.126118
      py      :     0.088602
      dz2     :     0.046309  d :     0.224716
      dxz     :     0.047155
      dyz     :     0.047250
      dx2y2   :     0.048128
      dxy     :     0.035873
  7 H s       :     0.627085  s :     0.627085
      pz      :     0.100359  p :     0.318560
      px      :     0.086071
      py      :     0.132130
      dz2     :     0.037690  d :     0.224600
      dxz     :     0.040283
      dyz     :     0.054208
      dx2y2   :     0.047936
      dxy     :     0.044483
  8 H s       :     0.628961  s :     0.628961
      pz      :     0.108844  p :     0.319339
      px      :     0.121733
      py      :     0.088761
      dz2     :     0.039015  d :     0.224578
      dxz     :     0.054434
      dyz     :     0.042852
      dx2y2   :     0.045087
      dxy     :     0.043190
  9 H s       :     0.637770  s :     0.637770
      pz      :     0.105730  p :     0.314826
      px      :     0.084290
      py      :     0.124806
      dz2     :     0.046028  d :     0.229030
      dxz     :     0.046395
      dyz     :     0.047591
      dx2y2   :     0.049691
      dxy     :     0.039325


                      *****************************
                      * MAYER POPULATION ANALYSIS *
                      *****************************

  NA   - Mulliken gross atomic population
  ZA   - Total nuclear charge
  QA   - Mulliken gross atomic charge
  VA   - Mayer's total valence
  BVA  - Mayer's bonded valence
  FA   - Mayer's free valence

  ATOM       NA         ZA         QA         VA         BVA        FA
  0 C      6.6226     6.0000    -0.6226     3.9175     3.9175    -0.0000
  1 C      5.4160     6.0000     0.5840     3.1080     3.1080    -0.0000
  2 C      6.6267     6.0000    -0.6267     3.9154     3.9154     0.0000
  3 O      8.6440     8.0000    -0.6440     1.5390     1.5390    -0.0000
  4 H      0.8038     1.0000     0.1962     1.0519     1.0519    -0.0000
  5 H      0.7709     1.0000     0.2291     0.9907     0.9907    -0.0000
  6 H      0.7720     1.0000     0.2280     0.9870     0.9870    -0.0000
  7 H      0.7742     1.0000     0.2258     0.9922     0.9922     0.0000
  8 H      0.7658     1.0000     0.2342     0.9813     0.9813     0.0000
  9 H      0.8041     1.0000     0.1959     1.0521     1.0521    -0.0000

  Mayer bond orders larger than 0.100000
B(  0-C ,  1-C ) :   0.8840 B(  0-C ,  4-H ) :   0.9797 B(  0-C ,  5-H ) :   0.9510 
B(  0-C ,  6-H ) :   0.9509 B(  1-C ,  2-C ) :   0.8833 B(  1-C ,  3-O ) :   1.3472 
B(  2-C ,  7-H ) :   0.9489 B(  2-C ,  8-H ) :   0.9491 B(  2-C ,  9-H ) :   0.9806 


-------
TIMINGS
-------

Total SCF time: 0 days 0 hours 0 min 19 sec 

Total time                  ....      19.828 sec
Sum of individual times     ....      19.533 sec  ( 98.5%)

Fock matrix formation       ....      18.412 sec  ( 92.9%)
  Split-RI-J                ....       1.313 sec  (  7.1% of F)
  Chain of spheres X        ....      13.559 sec  ( 73.6% of F)
  XC integration            ....       3.467 sec  ( 18.8% of F)
    Basis function eval.    ....       0.639 sec  ( 18.4% of XC)
    Density eval.           ....       0.837 sec  ( 24.1% of XC)
    XC-Functional eval.     ....       0.042 sec  (  1.2% of XC)
    XC-Potential eval.      ....       1.393 sec  ( 40.2% of XC)
Diagonalization             ....       0.152 sec  (  0.8%)
Density matrix formation    ....       0.028 sec  (  0.1%)
Population analysis         ....       0.017 sec  (  0.1%)
Initial guess               ....       0.132 sec  (  0.7%)
Orbital Transformation      ....       0.000 sec  (  0.0%)
Orbital Orthonormalization  ....       0.000 sec  (  0.0%)
DIIS solution               ....       0.078 sec  (  0.4%)
SOSCF solution              ....       0.092 sec  (  0.5%)
Grid generation             ....       0.623 sec  (  3.1%)

Maximum memory used throughout the entire SCF-calculation: 78.3 MB

-------------------------   --------------------
FINAL SINGLE POINT ENERGY      -193.118631095602
-------------------------   --------------------


                            ***************************************
                            *     ORCA property calculations      *
                            ***************************************

                                    ---------------------
                                    Active property flags
                                    ---------------------
   (+) Dipole Moment


------------------------------------------------------------------------------
                       ORCA ELECTRIC PROPERTIES CALCULATION
------------------------------------------------------------------------------

Dipole Moment Calculation                       ... on
Quadrupole Moment Calculation                   ... off
Polarizability Calculation                      ... off
GBWName                                         ... acetone_B3LYP.gbw
Electron density                                ... acetone_B3LYP.scfp
The origin for moment calculation is the CENTER OF MASS  = ( 0.327414, -0.623159 -0.619855)

-------------
DIPOLE MOMENT
-------------
                                X             Y             Z
Electronic contribution:     -3.00187       2.38393      -0.43020
Nuclear contribution   :      3.94268      -3.12812       0.56596
                        -----------------------------------------
Total Dipole Moment    :      0.94081      -0.74419       0.13576
                        -----------------------------------------
Magnitude (a.u.)       :      1.20722
Magnitude (Debye)      :      3.06850



--------------------
Rotational spectrum 
--------------------
 
Rotational constants in cm-1:     0.341435     0.287079     0.165459 
Rotational constants in MHz : 10235.958159  8606.416007  4960.349413 

 Dipole components along the rotational axes: 
x,y,z [a.u.] :     0.005141     1.207197    -0.004697 
x,y,z [Debye]:     0.013068     3.068452    -0.011939 

 

Timings for individual modules:

Sum of individual times         ...       20.219 sec (=   0.337 min)
GTO integral calculation        ...        0.274 sec (=   0.005 min)   1.4 %
SCF iterations                  ...       19.945 sec (=   0.332 min)  98.6 %
                             ****ORCA TERMINATED NORMALLY****
TOTAL RUN TIME: 0 days 0 hours 0 minutes 20 seconds 476 msec
