
                                 *****************
                                 * O   R   C   A *
                                 *****************

                                            #,                                       
                                            ###                                      
                                            ####                                     
                                            #####                                    
                                            ######                                   
                                           ########,                                 
                                     ,,################,,,,,                         
                               ,,#################################,,                 
                          ,,##########################################,,             
                       ,#########################################, ''#####,          
                    ,#############################################,,   '####,        
                  ,##################################################,,,,####,       
                ,###########''''           ''''###############################       
              ,#####''   ,,,,##########,,,,          '''####'''          '####       
            ,##' ,,,,###########################,,,                        '##       
           ' ,,###''''                  '''############,,,                           
         ,,##''                                '''############,,,,        ,,,,,,###''
      ,#''                                            '''#######################'''  
     '                                                          ''''####''''         
             ,#######,   #######,   ,#######,      ##                                
            ,#'     '#,  ##    ##  ,#'     '#,    #''#        ######   ,####,        
            ##       ##  ##   ,#'  ##            #'  '#       #        #'  '#        
            ##       ##  #######   ##           ,######,      #####,   #    #        
            '#,     ,#'  ##    ##  '#,     ,#' ,#      #,         ##   #,  ,#        
             '#######'   ##     ##  '#######'  #'      '#     #####' # '####'        



                  #######################################################
                  #                        -***-                        #
                  #          Department of theory and spectroscopy      #
                  #    Directorship and core code : Frank Neese         #
                  #        Max Planck Institute fuer Kohlenforschung    #
                  #                Kaiser Wilhelm Platz 1               #
                  #                 D-45470 Muelheim/Ruhr               #
                  #                      Germany                        #
                  #                                                     #
                  #                  All rights reserved                #
                  #                        -***-                        #
                  #######################################################


                         Program Version 5.0.1 -  RELEASE  -


 With contributions from (in alphabetic order):
   Daniel Aravena         : Magnetic Suceptibility
   Michael Atanasov       : Ab Initio Ligand Field Theory (pilot matlab implementation)
   Alexander A. Auer      : GIAO ZORA, VPT2 properties, NMR spectrum
   Ute Becker             : Parallelization
   Giovanni Bistoni       : ED, misc. LED, open-shell LED, HFLD
   Martin Brehm           : Molecular dynamics
   Dmytro Bykov           : SCF Hessian
   Vijay G. Chilkuri      : MRCI spin determinant printing, contributions to CSF-ICE
   Dipayan Datta          : RHF DLPNO-CCSD density
   Achintya Kumar Dutta   : EOM-CC, STEOM-CC
   Dmitry Ganyushin       : Spin-Orbit,Spin-Spin,Magnetic field MRCI
   Miquel Garcia          : C-PCM and meta-GGA Hessian, CC/C-PCM, Gaussian charge scheme
   Yang Guo               : DLPNO-NEVPT2, F12-NEVPT2, CIM, IAO-localization
   Andreas Hansen         : Spin unrestricted coupled pair/coupled cluster methods
   Benjamin Helmich-Paris : MC-RPA, TRAH-SCF, COSX integrals
   Lee Huntington         : MR-EOM, pCC
   Robert Izsak           : Overlap fitted RIJCOSX, COSX-SCS-MP3, EOM
   Marcus Kettner         : VPT2
   Christian Kollmar      : KDIIS, OOCD, Brueckner-CCSD(T), CCSD density, CASPT2, CASPT2-K
   Simone Kossmann        : Meta GGA functionals, TD-DFT gradient, OOMP2, MP2 Hessian
   Martin Krupicka        : Initial AUTO-CI
   Lucas Lang             : DCDCAS
   Marvin Lechner         : AUTO-CI (C++ implementation), FIC-MRCC
   Dagmar Lenk            : GEPOL surface, SMD
   Dimitrios Liakos       : Extrapolation schemes; Compound Job, initial MDCI parallelization
   Dimitrios Manganas     : Further ROCIS development; embedding schemes
   Dimitrios Pantazis     : SARC Basis sets
   Anastasios Papadopoulos: AUTO-CI, single reference methods and gradients
   Taras Petrenko         : DFT Hessian,TD-DFT gradient, ASA, ECA, R-Raman, ABS, FL, XAS/XES, NRVS
   Peter Pinski           : DLPNO-MP2, DLPNO-MP2 Gradient
   Christoph Reimann      : Effective Core Potentials
   Marius Retegan         : Local ZFS, SOC
   Christoph Riplinger    : Optimizer, TS searches, QM/MM, DLPNO-CCSD(T), (RO)-DLPNO pert. Triples
   Tobias Risthaus        : Range-separated hybrids, TD-DFT gradient, RPA, STAB
   Michael Roemelt        : Original ROCIS implementation
   Masaaki Saitow         : Open-shell DLPNO-CCSD energy and density
   Barbara Sandhoefer     : DKH picture change effects
   Avijit Sen             : IP-ROCIS
   Kantharuban Sivalingam : CASSCF convergence, NEVPT2, FIC-MRCI
   Bernardo de Souza      : ESD, SOC TD-DFT
   Georgi Stoychev        : AutoAux, RI-MP2 NMR, DLPNO-MP2 response
   Willem Van den Heuvel  : Paramagnetic NMR
   Boris Wezisla          : Elementary symmetry handling
   Frank Wennmohs         : Technical directorship


 We gratefully acknowledge several colleagues who have allowed us to
 interface, adapt or use parts of their codes:
   Stefan Grimme, W. Hujo, H. Kruse, P. Pracht,  : VdW corrections, initial TS optimization,
                  C. Bannwarth, S. Ehlert          DFT functionals, gCP, sTDA/sTD-DF
   Ed Valeev, F. Pavosevic, A. Kumar             : LibInt (2-el integral package), F12 methods
   Garnet Chan, S. Sharma, J. Yang, R. Olivares  : DMRG
   Ulf Ekstrom                                   : XCFun DFT Library
   Mihaly Kallay                                 : mrcc  (arbitrary order and MRCC methods)
   Jiri Pittner, Ondrej Demel                    : Mk-CCSD
   Frank Weinhold                                : gennbo (NPA and NBO analysis)
   Christopher J. Cramer and Donald G. Truhlar   : smd solvation model
   Lars Goerigk                                  : TD-DFT with DH, B97 family of functionals
   V. Asgeirsson, H. Jonsson                     : NEB implementation
   FAccTs GmbH                                   : IRC, NEB, NEB-TS, DLPNO-Multilevel, CI-OPT
                                                   MM, QMMM, 2- and 3-layer-ONIOM, Crystal-QMMM,
                                                   LR-CPCM, SF, NACMEs, symmetry and pop. for TD-DFT,
                                                   nearIR, NL-DFT gradient (VV10), updates on ESD,
                                                   ML-optimized integration grids
   S Lehtola, MJT Oliveira, MAL Marques          : LibXC Library
   Liviu Ungur et al                             : ANISO software


 Your calculation uses the libint2 library for the computation of 2-el integrals
 For citations please refer to: http://libint.valeyev.net

 Your ORCA version has been built with support for libXC version: 5.1.0
 For citations please refer to: https://tddft.org/programs/libxc/

 This ORCA versions uses:
   CBLAS   interface :  Fast vector & matrix operations
   LAPACKE interface :  Fast linear algebra routines
   SCALAPACK package :  Parallel linear algebra routines
   Shared memory     :  Shared parallel matrices
   BLAS/LAPACK       :  OpenBLAS 0.3.15  USE64BITINT DYNAMIC_ARCH NO_AFFINITY Zen SINGLE_THREADED
        Core in use  :  Zen
   Copyright (c) 2011-2014, The OpenBLAS Project




***************************************
The coordinates will be read from file: dimethyl_ether.xyz
***************************************


================================================================================

----- Orbital basis set information -----
Your calculation utilizes the basis: def2-TZVP
   F. Weigend and R. Ahlrichs, Phys. Chem. Chem. Phys. 7, 3297 (2005).

----- AuxJ basis set information -----
Your calculation utilizes the auxiliary basis: def2/J
   F. Weigend, Phys. Chem. Chem. Phys. 8, 1057 (2006).

================================================================================
                                        WARNINGS
                       Please study these warnings very carefully!
================================================================================


WARNING: Geometry Optimization
  ===> : Switching off AutoStart
         For restart on a previous wavefunction, please use MOREAD

INFO   : the flag for use of the SHARK integral package has been found!

================================================================================
                                       INPUT FILE
================================================================================
NAME = dimethyl_ether_OPT.inp
|  1> 
|  2> %pal
|  3>   nprocs 6
|  4> end
|  5> %maxcore 2000
|  6> 
|  7> ! PBE0 def2-TZVP TightOPT Freq
|  8> ! RIJCOSX def2/J
|  9> 
| 10> * xyzfile 0 1 dimethyl_ether.xyz
| 11> 
| 12> 
| 13>                          ****END OF INPUT****
================================================================================

                       *****************************
                       * Geometry Optimization Run *
                       *****************************

Geometry optimization settings:
Update method            Update   .... BFGS
Choice of coordinates    CoordSys .... Z-matrix Internals
Initial Hessian          InHess   .... Almoef's Model

Convergence Tolerances:
Energy Change            TolE     ....  1.0000e-06 Eh
Max. Gradient            TolMAXG  ....  1.0000e-04 Eh/bohr
RMS Gradient             TolRMSG  ....  3.0000e-05 Eh/bohr
Max. Displacement        TolMAXD  ....  1.0000e-03 bohr
RMS Displacement         TolRMSD  ....  6.0000e-04 bohr
Strict Convergence                ....  False
------------------------------------------------------------------------------
                        ORCA OPTIMIZATION COORDINATE SETUP
------------------------------------------------------------------------------

The optimization will be done in new redundant internal coordinates
Making redundant internal coordinates   ...  (new redundants) done
Evaluating the initial hessian          ...  (Almloef) done
Evaluating the coordinates              ...  done
Calculating the B-matrix                .... done
Calculating the G-matrix                .... done
Diagonalizing the G-matrix              .... done
The first mode is                       ....    6
The number of degrees of freedom        ....   21

    -----------------------------------------------------------------
                    Redundant Internal Coordinates


    -----------------------------------------------------------------
         Definition                    Initial Value    Approx d2E/dq
    -----------------------------------------------------------------
      1. B(O   1,C   0)                  1.4378         0.469477   
      2. B(C   2,O   1)                  1.4378         0.469486   
      3. B(H   3,C   0)                  1.0918         0.357675   
      4. B(H   4,C   0)                  1.0911         0.358666   
      5. B(H   5,C   0)                  1.0918         0.357683   
      6. B(H   6,C   2)                  1.0918         0.357676   
      7. B(H   7,C   2)                  1.0911         0.358662   
      8. B(H   8,C   2)                  1.0918         0.357681   
      9. A(H   3,C   0,H   4)          108.2887         0.290349   
     10. A(O   1,C   0,H   3)          111.1237         0.334395   
     11. A(O   1,C   0,H   4)          108.3579         0.334548   
     12. A(H   3,C   0,H   5)          109.5633         0.290224   
     13. A(O   1,C   0,H   5)          111.1241         0.334396   
     14. A(H   4,C   0,H   5)          108.2885         0.290350   
     15. A(C   0,O   1,C   2)          113.9522         0.388264   
     16. A(H   7,C   2,H   8)          108.2888         0.290349   
     17. A(H   6,C   2,H   8)          109.5636         0.290224   
     18. A(O   1,C   2,H   8)          111.1239         0.334397   
     19. A(H   6,C   2,H   7)          108.2885         0.290349   
     20. A(O   1,C   2,H   7)          108.3576         0.334549   
     21. A(O   1,C   2,H   6)          111.1237         0.334396   
     22. D(C   2,O   1,C   0,H   5)     61.1414         0.017373   
     23. D(C   2,O   1,C   0,H   3)    -61.1410         0.017373   
     24. D(C   2,O   1,C   0,H   4)   -179.9998         0.017373   
     25. D(H   8,C   2,O   1,C   0)     61.1414         0.017374   
     26. D(H   7,C   2,O   1,C   0)   -179.9996         0.017374   
     27. D(H   6,C   2,O   1,C   0)    -61.1413         0.017374   
    -----------------------------------------------------------------

Number of atoms                         .... 9
Number of degrees of freedom            .... 27

         *************************************************************
         *                GEOMETRY OPTIMIZATION CYCLE   1            *
         *************************************************************
---------------------------------
CARTESIAN COORDINATES (ANGSTROEM)
---------------------------------
  C      1.462630   -0.009770   -0.016920
  O      0.025930    0.018340    0.031760
  C     -0.505960    0.686240    1.188590
  H      1.875030    1.000620   -0.050850
  H      1.765520   -0.533870   -0.924690
  H      1.875030   -0.544350    0.841130
  H     -0.194830    0.187460    2.108660
  H     -1.595180    0.654320    1.133310
  H     -0.194830    1.732430    1.216670

----------------------------
CARTESIAN COORDINATES (A.U.)
----------------------------
  NO LB      ZA    FRAG     MASS         X           Y           Z
   0 C     6.0000    0    12.011    2.763970   -0.018463   -0.031974
   1 O     8.0000    0    15.999    0.049001    0.034658    0.060018
   2 C     6.0000    0    12.011   -0.956126    1.296806    2.246110
   3 H     1.0000    0     1.008    3.543293    1.890898   -0.096093
   4 H     1.0000    0     1.008    3.336349   -1.008868   -1.747411
   5 H     1.0000    0     1.008    3.543293   -1.028672    1.589505
   6 H     1.0000    0     1.008   -0.368175    0.354248    3.984790
   7 H     1.0000    0     1.008   -3.014453    1.236486    2.141646
   8 H     1.0000    0     1.008   -0.368175    3.273818    2.299173

--------------------------------
INTERNAL COORDINATES (ANGSTROEM)
--------------------------------
 C      0   0   0     0.000000000000     0.00000000     0.00000000
 O      1   0   0     1.437799292148     0.00000000     0.00000000
 C      2   1   0     1.437794502354   113.95223013     0.00000000
 H      1   2   3     1.091839254194   111.12368104   298.85898995
 H      1   2   3     1.091086401253   108.35790197   180.00018911
 H      1   2   3     1.091833017865   111.12410172    61.14138476
 H      3   2   1     1.091838893885   111.12367409   298.85869735
 H      3   2   1     1.091088893354   108.35759625   180.00035356
 H      3   2   1     1.091835097164   111.12393384    61.14138868

---------------------------
INTERNAL COORDINATES (A.U.)
---------------------------
 C      0   0   0     0.000000000000     0.00000000     0.00000000
 O      1   0   0     2.717046897705     0.00000000     0.00000000
 C      2   1   0     2.717037846307   113.95223013     0.00000000
 H      1   2   3     2.063277172692   111.12368104   298.85898995
 H      1   2   3     2.061854486815   108.35790197   180.00018911
 H      1   2   3     2.063265387737   111.12410172    61.14138476
 H      3   2   1     2.063276491806   111.12367409   298.85869735
 H      3   2   1     2.061859196202   108.35759625   180.00035356
 H      3   2   1     2.063269317044   111.12393384    61.14138868

---------------------
BASIS SET INFORMATION
---------------------
There are 3 groups of distinct atoms

 Group   1 Type C   : 11s6p2d1f contracted to 5s3p2d1f pattern {62111/411/11/1}
 Group   2 Type O   : 11s6p2d1f contracted to 5s3p2d1f pattern {62111/411/11/1}
 Group   3 Type H   : 5s1p contracted to 3s1p pattern {311/1}

Atom   0C    basis set group =>   1
Atom   1O    basis set group =>   2
Atom   2C    basis set group =>   1
Atom   3H    basis set group =>   3
Atom   4H    basis set group =>   3
Atom   5H    basis set group =>   3
Atom   6H    basis set group =>   3
Atom   7H    basis set group =>   3
Atom   8H    basis set group =>   3
---------------------------------
AUXILIARY/J BASIS SET INFORMATION
---------------------------------
There are 3 groups of distinct atoms

 Group   1 Type C   : 12s5p4d2f1g contracted to 6s4p3d1f1g pattern {711111/2111/211/2/1}
 Group   2 Type O   : 12s5p4d2f1g contracted to 6s4p3d1f1g pattern {711111/2111/211/2/1}
 Group   3 Type H   : 5s2p1d contracted to 3s1p1d pattern {311/2/1}

Atom   0C    basis set group =>   1
Atom   1O    basis set group =>   2
Atom   2C    basis set group =>   1
Atom   3H    basis set group =>   3
Atom   4H    basis set group =>   3
Atom   5H    basis set group =>   3
Atom   6H    basis set group =>   3
Atom   7H    basis set group =>   3
Atom   8H    basis set group =>   3


           ************************************************************
           *        Program running with 6 parallel MPI-processes     *
           *              working on a common directory               *
           ************************************************************
------------------------------------------------------------------------------
                           ORCA GTO INTEGRAL CALCULATION
                           -- RI-GTO INTEGRALS CHOSEN --
------------------------------------------------------------------------------
------------------------------------------------------------------------------
                   ___                                                        
                  /   \      - P O W E R E D   B Y -                         
                 /     \                                                     
                 |  |  |   _    _      __       _____    __    __             
                 |  |  |  | |  | |    /  \     |  _  \  |  |  /  |          
                  \  \/   | |  | |   /    \    | | | |  |  | /  /          
                 / \  \   | |__| |  /  /\  \   | |_| |  |  |/  /          
                |  |  |   |  __  | /  /__\  \  |    /   |      \           
                |  |  |   | |  | | |   __   |  |    \   |  |\   \          
                \     /   | |  | | |  |  |  |  | |\  \  |  | \   \       
                 \___/    |_|  |_| |__|  |__|  |_| \__\ |__|  \__/        
                                                                              
                      - O R C A' S   B I G   F R I E N D -                    
                                      &                                       
                       - I N T E G R A L  F E E D E R -                       
                                                                              
 v1 FN, 2020, v2 2021                                                         
------------------------------------------------------------------------------


Reading SHARK input file dimethyl_ether_OPT.SHARKINP.tmp ... ok
----------------------
SHARK INTEGRAL PACKAGE
----------------------

Number of atoms                             ...      9
Number of basis functions                   ...    129
Number of shells                            ...     57
Maximum angular momentum                    ...      3
Integral batch strategy                     ... SHARK/LIBINT Hybrid
RI-J (if used) integral strategy            ... SPLIT-RIJ (Revised 2003 algorithm where possible)
Printlevel                                  ...      1
Contraction scheme used                     ... SEGMENTED contraction
Coulomb Range Separation                    ... NOT USED
Exchange Range Separation                   ... NOT USED
Finite Nucleus Model                        ... NOT USED
Auxiliary Coulomb fitting basis             ... AVAILABLE
   # of basis functions in Aux-J            ...    213
   # of shells in Aux-J                     ...     75
   Maximum angular momentum in Aux-J        ...      4
Auxiliary J/K fitting basis                 ... NOT available
Auxiliary Correlation fitting basis         ... NOT available
Auxiliary 'external' fitting basis          ... NOT available
Integral threshold                          ...     2.500000e-11
Primitive cut-off                           ...     2.500000e-12
Primitive pair pre-selection threshold      ...     2.500000e-12

Calculating pre-screening integrals         ... done (  0.0 sec) Dimension = 57
Organizing shell pair data                  ... done (  0.0 sec)
Shell pair information
Total number of shell pairs                 ...      1653
Shell pairs after pre-screening             ...      1628
Total number of primitive shell pairs       ...      4740
Primitive shell pairs kept                  ...      3941
          la=0 lb=0:    540 shell pairs
          la=1 lb=0:    491 shell pairs
          la=1 lb=1:    120 shell pairs
          la=2 lb=0:    198 shell pairs
          la=2 lb=1:     90 shell pairs
          la=2 lb=2:     21 shell pairs
          la=3 lb=0:     99 shell pairs
          la=3 lb=1:     45 shell pairs
          la=3 lb=2:     18 shell pairs
          la=3 lb=3:      6 shell pairs

Calculating one electron integrals          ... done (  0.0 sec)
Calculating RI/J V-Matrix + Cholesky decomp.... done (  0.0 sec)
Calculating Nuclear repulsion               ... done (  0.0 sec) ENN=     82.731968005688 Eh

SHARK setup successfully completed in   0.1 seconds

Maximum memory used throughout the entire GTOINT-calculation: 13.8 MB


           ************************************************************
           *        Program running with 6 parallel MPI-processes     *
           *              working on a common directory               *
           ************************************************************
-------------------------------------------------------------------------------
                                 ORCA SCF
-------------------------------------------------------------------------------

------------
SCF SETTINGS
------------
Hamiltonian:
 Density Functional     Method          .... DFT(GTOs)
 Exchange Functional    Exchange        .... PBE
   PBE kappa parameter   XKappa         ....  0.804000
   PBE mue parameter    XMuePBE         ....  0.219520
 Correlation Functional Correlation     .... PBE
   PBE beta parameter  CBetaPBE         ....  0.066725
 LDA part of GGA corr.  LDAOpt          .... PW91-LDA
 Gradients option       PostSCFGGA      .... off
 Hybrid DFT is turned on
   Fraction HF Exchange ScalHFX         ....  0.250000
   Scaling of DF-GGA-X  ScalDFX         ....  0.750000
   Scaling of DF-GGA-C  ScalDFC         ....  1.000000
   Scaling of DF-LDA-C  ScalLDAC        ....  1.000000
   Perturbative correction              ....  0.000000
   Density functional embedding theory  .... OFF
   NL short-range parameter             ....  6.900000
 RI-approximation to the Coulomb term is turned on
   Number of AuxJ basis functions       .... 213
   RIJ-COSX (HFX calculated with COS-X)).... on


General Settings:
 Integral files         IntName         .... dimethyl_ether_OPT
 Hartree-Fock type      HFTyp           .... RHF
 Total Charge           Charge          ....    0
 Multiplicity           Mult            ....    1
 Number of Electrons    NEL             ....   26
 Basis Dimension        Dim             ....  129
 Nuclear Repulsion      ENuc            ....     82.7319680057 Eh

Convergence Acceleration:
 DIIS                   CNVDIIS         .... on
   Start iteration      DIISMaxIt       ....    12
   Startup error        DIISStart       ....  0.200000
   # of expansion vecs  DIISMaxEq       ....     5
   Bias factor          DIISBfac        ....   1.050
   Max. coefficient     DIISMaxC        ....  10.000
 Trust-Rad. Augm. Hess. CNVTRAH         .... auto
   Auto Start mean grad. ratio tolernc. ....  1.125000
   Auto Start start iteration           ....    20
   Auto Start num. interpolation iter.  ....    10
   Max. Number of Micro iterations      ....    16
   Max. Number of Macro iterations      .... Maxiter - #DIIS iter
   Number of Davidson start vectors     ....     2
   Converg. threshold I  (grad. norm)   ....   1.000e-05
   Converg. threshold II (energy diff.) ....   1.000e-08
   Grad. Scal. Fac. for Micro threshold ....   0.100
   Minimum threshold for Micro iter.    ....   0.010
   NR start threshold (gradient norm)   ....   0.001
   Initial trust radius                 ....   0.400
   Minimum AH scaling param. (alpha)    ....   1.000
   Maximum AH scaling param. (alpha)    .... 1000.000
   Orbital update algorithm             .... Taylor
   White noise on init. David. guess    .... on
   Maximum white noise                  ....   0.010
   Quad. conv. algorithm                .... NR
 SOSCF                  CNVSOSCF        .... on
   Start iteration      SOSCFMaxIt      ....   150
   Startup grad/error   SOSCFStart      ....  0.003300
 Level Shifting         CNVShift        .... on
   Level shift para.    LevelShift      ....    0.2500
   Turn off err/grad.   ShiftErr        ....    0.0010
 Zerner damping         CNVZerner       .... off
 Static damping         CNVDamp         .... on
   Fraction old density DampFac         ....    0.7000
   Max. Damping (<1)    DampMax         ....    0.9800
   Min. Damping (>=0)   DampMin         ....    0.0000
   Turn off err/grad.   DampErr         ....    0.1000
 Fernandez-Rico         CNVRico         .... off

SCF Procedure:
 Maximum # iterations   MaxIter         ....   125
 SCF integral mode      SCFMode         .... Direct
   Integral package                     .... SHARK and LIBINT hybrid scheme
 Reset frequency        DirectResetFreq ....    20
 Integral Threshold     Thresh          ....  2.500e-11 Eh
 Primitive CutOff       TCut            ....  2.500e-12 Eh

Convergence Tolerance:
 Convergence Check Mode ConvCheckMode   .... Total+1el-Energy
 Convergence forced     ConvForced      .... 0
 Energy Change          TolE            ....  1.000e-08 Eh
 1-El. energy change                    ....  1.000e-05 Eh
 Orbital Gradient       TolG            ....  1.000e-05
 Orbital Rotation angle TolX            ....  1.000e-05
 DIIS Error             TolErr          ....  5.000e-07


Diagonalization of the overlap matrix:
Smallest eigenvalue                        ... 1.087e-03
Time for diagonalization                   ...    0.002 sec
Threshold for overlap eigenvalues          ... 1.000e-08
Number of eigenvalues below threshold      ... 0
Time for construction of square roots      ...    0.001 sec
Total time needed                          ...    0.003 sec

Time for model grid setup =    0.032 sec

------------------------------
INITIAL GUESS: MODEL POTENTIAL
------------------------------
Loading Hartree-Fock densities                     ... done
Calculating cut-offs                               ... done
Initializing the effective Hamiltonian             ... done
Setting up the integral package (SHARK)            ... done
Starting the Coulomb interaction                   ... done (   0.0 sec)
Reading the grid                                   ... done
Mapping shells                                     ... done
Starting the XC term evaluation                    ... done (   0.0 sec)
  promolecular density results
     # of electrons  =     25.996596072
     EX              =    -20.115751547
     EC              =     -0.833726741
     EX+EC           =    -20.949478289
Transforming the Hamiltonian                       ... done (   0.0 sec)
Diagonalizing the Hamiltonian                      ... done (   0.0 sec)
Back transforming the eigenvectors                 ... done (   0.0 sec)
Now organizing SCF variables                       ... done
                      ------------------
                      INITIAL GUESS DONE (   0.1 sec)
                      ------------------
-------------------
DFT GRID GENERATION
-------------------

General Integration Accuracy     IntAcc      ... 4.388
Radial Grid Type                 RadialGrid  ... OptM3 with GC (2021)
Angular Grid (max. ang.)         AngularGrid ... 4 (Lebedev-302)
Angular grid pruning method      GridPruning ... 4 (adaptive)
Weight generation scheme         WeightScheme... Becke
Basis function cutoff            BFCut       ... 1.0000e-11
Integration weight cutoff        WCut        ... 1.0000e-14
Angular grids for H and He will be reduced by one unit
Partially contracted basis set               ... off
Rotationally invariant grid construction     ... off

Total number of grid points                  ...    37778
Total number of batches                      ...      594
Average number of points per batch           ...       63
Average number of grid points per atom       ...     4198
Time for grid setup =    0.149 sec

--------------------
COSX GRID GENERATION
--------------------

GRIDX 1
-------
General Integration Accuracy     IntAcc      ... 3.816
Radial Grid Type                 RadialGrid  ... OptM3 with GC (2021)
Angular Grid (max. ang.)         AngularGrid ... 1 (Lebedev-50)
Angular grid pruning method      GridPruning ... 4 (adaptive)
Weight generation scheme         WeightScheme... Becke
Basis function cutoff            BFCut       ... 1.0000e-11
Integration weight cutoff        WCut        ... 1.0000e-14
Angular grids for H and He will be reduced by one unit
Partially contracted basis set               ... on
Rotationally invariant grid construction     ... off

Total number of grid points                  ...     4883
Total number of batches                      ...       83
Average number of points per batch           ...       58
Average number of grid points per atom       ...      543
UseSFitting                                  ... on

GRIDX 2
-------
General Integration Accuracy     IntAcc      ... 4.020
Radial Grid Type                 RadialGrid  ... OptM3 with GC (2021)
Angular Grid (max. ang.)         AngularGrid ... 2 (Lebedev-110)
Angular grid pruning method      GridPruning ... 4 (adaptive)
Weight generation scheme         WeightScheme... Becke
Basis function cutoff            BFCut       ... 1.0000e-11
Integration weight cutoff        WCut        ... 1.0000e-14
Angular grids for H and He will be reduced by one unit
Partially contracted basis set               ... on
Rotationally invariant grid construction     ... off

Total number of grid points                  ...    10242
Total number of batches                      ...      166
Average number of points per batch           ...       61
Average number of grid points per atom       ...     1138
UseSFitting                                  ... on

GRIDX 3
-------
General Integration Accuracy     IntAcc      ... 4.338
Radial Grid Type                 RadialGrid  ... OptM3 with GC (2021)
Angular Grid (max. ang.)         AngularGrid ... 3 (Lebedev-194)
Angular grid pruning method      GridPruning ... 4 (adaptive)
Weight generation scheme         WeightScheme... Becke
Basis function cutoff            BFCut       ... 1.0000e-11
Integration weight cutoff        WCut        ... 1.0000e-14
Angular grids for H and He will be reduced by one unit
Partially contracted basis set               ... on
Rotationally invariant grid construction     ... off

Total number of grid points                  ...    22488
Total number of batches                      ...      356
Average number of points per batch           ...       63
Average number of grid points per atom       ...     2499
UseSFitting                                  ... on

Time for X-Grid setup             =    0.105 sec

--------------
SCF ITERATIONS
--------------
ITER       Energy         Delta-E        Max-DP      RMS-DP      [F,P]     Damp
               ***  Starting incremental Fock matrix formation  ***
  0   -154.8155304538   0.000000000000 0.03187242  0.00116108  0.1709484 0.7000
  1   -154.8539371001  -0.038406646312 0.01783588  0.00087344  0.0747484 0.7000
                               ***Turning on DIIS***
  2   -154.8702802437  -0.016343143592 0.02725155  0.00152725  0.0330715 0.0000
  3   -154.8951098083  -0.024829564608 0.01296126  0.00063256  0.0387980 0.0000
  4   -154.9006990554  -0.005589247022 0.00324048  0.00016560  0.0085469 0.0000
  5   -154.9009011417  -0.000202086379 0.00167302  0.00007096  0.0048982 0.0000
                      *** Initiating the SOSCF procedure ***
                           *** Shutting down DIIS ***
                      *** Re-Reading the Fockian *** 
                      *** Removing any level shift *** 
ITER      Energy       Delta-E        Grad      Rot      Max-DP    RMS-DP
  6   -154.90093144  -0.0000303005  0.000268  0.000268  0.001108  0.000044
               *** Restarting incremental Fock matrix formation ***
  7   -154.90092863   0.0000028123  0.000087  0.000104  0.000144  0.000006
  8   -154.90092859   0.0000000360  0.000121  0.000072  0.000092  0.000004
  9   -154.90092872  -0.0000001284  0.000014  0.000023  0.000020  0.000001
 10   -154.90092872   0.0000000024  0.000014  0.000012  0.000012  0.000000
                  ***Gradient check signals convergence***
              ***Rediagonalizing the Fockian in SOSCF/NRSCF***

               *****************************************************
               *                     SUCCESS                       *
               *           SCF CONVERGED AFTER  11 CYCLES          *
               *****************************************************

Old exchange energy                            =     -5.173881945 Eh
New exchange energy                            =     -5.173882997 Eh
Exchange energy change after final integration =     -0.000001052 Eh
Total energy after final integration           =   -154.900929776 Eh
Final COS-X integration done in                =     0.536 sec

----------------
TOTAL SCF ENERGY
----------------

Total Energy       :         -154.90092978 Eh           -4215.06859 eV

Components:
Nuclear Repulsion  :           82.73196801 Eh            2251.25130 eV
Electronic Energy  :         -237.63289778 Eh           -6466.31989 eV
One Electron Energy:         -373.58848607 Eh          -10165.85953 eV
Two Electron Energy:          135.95558829 Eh            3699.53964 eV
Max COSX asymmetry :            0.00000080 Eh               0.00002 eV

Virial components:
Potential Energy   :         -308.97929924 Eh           -8407.75417 eV
Kinetic Energy     :          154.07836947 Eh            4192.68559 eV
Virial Ratio       :            2.00533858


DFT components:
N(Alpha)           :       12.999993156391 electrons
N(Beta)            :       12.999993156391 electrons
N(Total)           :       25.999986312782 electrons
E(X)               :      -15.472484264484 Eh       
E(C)               :       -0.839097202950 Eh       
E(XC)              :      -16.311581467434 Eh       
DFET-embed. en.    :        0.000000000000 Eh       

---------------
SCF CONVERGENCE
---------------

  Last Energy change         ...   -4.4348e-09  Tolerance :   1.0000e-08
  Last MAX-Density change    ...    6.6613e-16  Tolerance :   1.0000e-07
  Last RMS-Density change    ...    1.8887e-17  Tolerance :   5.0000e-09
  Last Orbital Gradient      ...    5.3070e-07  Tolerance :   1.0000e-05
  Last Orbital Rotation      ...    8.7316e-07  Tolerance :   1.0000e-05

             **** THE GBW FILE WAS UPDATED (dimethyl_ether_OPT.gbw) ****
             **** DENSITY dimethyl_ether_OPT.scfp WAS UPDATED ****
             **** ENERGY FILE WAS UPDATED (dimethyl_ether_OPT.en.tmp) ****
             **** THE GBW FILE WAS UPDATED (dimethyl_ether_OPT.gbw) ****
             **** DENSITY dimethyl_ether_OPT.scfp WAS UPDATED ****
----------------
ORBITAL ENERGIES
----------------

  NO   OCC          E(Eh)            E(eV) 
   0   2.0000     -19.206739      -522.6419 
   1   2.0000     -10.259298      -279.1697 
   2   2.0000     -10.259283      -279.1693 
   3   2.0000      -1.044512       -28.4226 
   4   2.0000      -0.739816       -20.1314 
   5   2.0000      -0.659421       -17.9437 
   6   2.0000      -0.484606       -13.1868 
   7   2.0000      -0.480374       -13.0716 
   8   2.0000      -0.478580       -13.0228 
   9   2.0000      -0.412340       -11.2203 
  10   2.0000      -0.391435       -10.6515 
  11   2.0000      -0.329562        -8.9678 
  12   2.0000      -0.271471        -7.3871 
  13   0.0000       0.051821         1.4101 
  14   0.0000       0.085375         2.3232 
  15   0.0000       0.090246         2.4557 
  16   0.0000       0.117685         3.2024 
  17   0.0000       0.119700         3.2572 
  18   0.0000       0.139273         3.7898 
  19   0.0000       0.158544         4.3142 
  20   0.0000       0.183691         4.9985 
  21   0.0000       0.208172         5.6646 
  22   0.0000       0.226416         6.1611 
  23   0.0000       0.238321         6.4850 
  24   0.0000       0.314830         8.5670 
  25   0.0000       0.325181         8.8486 
  26   0.0000       0.335907         9.1405 
  27   0.0000       0.351802         9.5730 
  28   0.0000       0.440257        11.9800 
  29   0.0000       0.440644        11.9905 
  30   0.0000       0.466044        12.6817 
  31   0.0000       0.467097        12.7103 
  32   0.0000       0.483975        13.1696 
  33   0.0000       0.485430        13.2092 
  34   0.0000       0.545740        14.8503 
  35   0.0000       0.550525        14.9805 
  36   0.0000       0.560882        15.2624 
  37   0.0000       0.671082        18.2611 
  38   0.0000       0.680368        18.5138 
  39   0.0000       0.712223        19.3806 
  40   0.0000       0.742112        20.1939 
  41   0.0000       0.802230        21.8298 
  42   0.0000       0.917873        24.9766 
  43   0.0000       0.942199        25.6385 
  44   0.0000       0.968709        26.3599 
  45   0.0000       1.018319        27.7099 
  46   0.0000       1.022185        27.8151 
  47   0.0000       1.034884        28.1606 
  48   0.0000       1.092172        29.7195 
  49   0.0000       1.398507        38.0553 
  50   0.0000       1.406165        38.2637 
  51   0.0000       1.515438        41.2372 
  52   0.0000       1.516061        41.2541 
  53   0.0000       1.520074        41.3633 
  54   0.0000       1.530221        41.6394 
  55   0.0000       1.552200        42.2375 
  56   0.0000       1.567132        42.6438 
  57   0.0000       1.568816        42.6896 
  58   0.0000       1.614932        43.9445 
  59   0.0000       1.644885        44.7596 
  60   0.0000       1.710880        46.5554 
  61   0.0000       1.758112        47.8406 
  62   0.0000       1.898828        51.6697 
  63   0.0000       1.917391        52.1749 
  64   0.0000       1.934821        52.6491 
  65   0.0000       1.950545        53.0770 
  66   0.0000       2.031596        55.2825 
  67   0.0000       2.041646        55.5560 
  68   0.0000       2.095383        57.0183 
  69   0.0000       2.120702        57.7072 
  70   0.0000       2.260895        61.5221 
  71   0.0000       2.271712        61.8164 
  72   0.0000       2.274308        61.8871 
  73   0.0000       2.301315        62.6220 
  74   0.0000       2.323449        63.2243 
  75   0.0000       2.421350        65.8883 
  76   0.0000       2.471501        67.2530 
  77   0.0000       2.488453        67.7143 
  78   0.0000       2.490606        67.7728 
  79   0.0000       2.507958        68.2450 
  80   0.0000       2.556140        69.5561 
  81   0.0000       2.577045        70.1250 
  82   0.0000       2.604594        70.8746 
  83   0.0000       2.623906        71.4001 
  84   0.0000       2.741314        74.5949 
  85   0.0000       2.776861        75.5622 
  86   0.0000       2.852970        77.6332 
  87   0.0000       3.017490        82.1101 
  88   0.0000       3.065406        83.4139 
  89   0.0000       3.069113        83.5148 
  90   0.0000       3.115084        84.7657 
  91   0.0000       3.137064        85.3639 
  92   0.0000       3.204029        87.1861 
  93   0.0000       3.214420        87.4688 
  94   0.0000       3.302329        89.8610 
  95   0.0000       3.317518        90.2742 
  96   0.0000       3.333918        90.7205 
  97   0.0000       3.384016        92.0838 
  98   0.0000       3.440244        93.6138 
  99   0.0000       3.522272        95.8459 
 100   0.0000       3.541230        96.3618 
 101   0.0000       3.564812        97.0035 
 102   0.0000       3.581310        97.4524 
 103   0.0000       3.637250        98.9746 
 104   0.0000       3.679740       100.1308 
 105   0.0000       3.723511       101.3219 
 106   0.0000       4.165923       113.3605 
 107   0.0000       4.229140       115.0808 
 108   0.0000       4.244787       115.5065 
 109   0.0000       4.281617       116.5087 
 110   0.0000       4.327702       117.7628 
 111   0.0000       4.408845       119.9708 
 112   0.0000       4.466642       121.5435 
 113   0.0000       4.701345       127.9301 
 114   0.0000       5.344493       145.4311 
 115   0.0000       5.388444       146.6270 
 116   0.0000       5.700326       155.1138 
 117   0.0000       5.796494       157.7306 
 118   0.0000       5.813147       158.1838 
 119   0.0000       6.111742       166.3089 
 120   0.0000       6.113634       166.3604 
 121   0.0000       6.683556       181.8688 
 122   0.0000       6.691061       182.0730 
 123   0.0000       6.832565       185.9235 
 124   0.0000       7.164404       194.9534 
 125   0.0000       7.166021       194.9973 
 126   0.0000      22.308488       607.0448 
 127   0.0000      22.412209       609.8672 
 128   0.0000      43.937318      1195.5952 

                    ********************************
                    * MULLIKEN POPULATION ANALYSIS *
                    ********************************

-----------------------
MULLIKEN ATOMIC CHARGES
-----------------------
   0 C :   -0.201298
   1 O :   -0.299344
   2 C :   -0.200937
   3 H :    0.108313
   4 H :    0.134240
   5 H :    0.108363
   6 H :    0.108271
   7 H :    0.134155
   8 H :    0.108237
Sum of atomic charges:   -0.0000000

--------------------------------
MULLIKEN REDUCED ORBITAL CHARGES
--------------------------------
  0 C s       :     3.232955  s :     3.232955
      pz      :     1.089822  p :     2.861280
      px      :     0.699493
      py      :     1.071965
      dz2     :     0.010004  d :     0.099686
      dxz     :     0.030965
      dyz     :     0.005641
      dx2y2   :     0.013532
      dxy     :     0.039543
      f0      :     0.000759  f :     0.007376
      f+1     :     0.000750
      f-1     :     0.000832
      f+2     :     0.001280
      f-2     :    -0.000011
      f+3     :     0.001402
      f-3     :     0.002365
  1 O s       :     3.775162  s :     3.775162
      pz      :     1.497719  p :     4.484370
      px      :     1.264411
      py      :     1.722240
      dz2     :     0.009035  d :     0.037955
      dxz     :     0.007416
      dyz     :     0.006471
      dx2y2   :     0.009437
      dxy     :     0.005595
      f0      :     0.000232  f :     0.001856
      f+1     :     0.000257
      f-1     :     0.000286
      f+2     :     0.000275
      f-2     :     0.000194
      f+3     :     0.000352
      f-3     :     0.000260
  2 C s       :     3.232795  s :     3.232795
      pz      :     0.826724  p :     2.861096
      px      :     1.050135
      py      :     0.984237
      dz2     :     0.036866  d :     0.099672
      dxz     :     0.013047
      dyz     :     0.019814
      dx2y2   :     0.021916
      dxy     :     0.008029
      f0      :     0.001500  f :     0.007374
      f+1     :     0.001235
      f-1     :     0.001542
      f+2     :     0.001231
      f-2     :     0.000834
      f+3     :     0.000791
      f-3     :     0.000242
  3 H s       :     0.871633  s :     0.871633
      pz      :     0.004378  p :     0.020054
      px      :     0.004434
      py      :     0.011242
  4 H s       :     0.845359  s :     0.845359
      pz      :     0.010417  p :     0.020401
      px      :     0.003496
      py      :     0.006489
  5 H s       :     0.871584  s :     0.871584
      pz      :     0.009169  p :     0.020054
      px      :     0.004435
      py      :     0.006450
  6 H s       :     0.871676  s :     0.871676
      pz      :     0.009955  p :     0.020053
      px      :     0.004568
      py      :     0.005530
  7 H s       :     0.845442  s :     0.845442
      pz      :     0.003234  p :     0.020403
      px      :     0.013075
      py      :     0.004094
  8 H s       :     0.871709  s :     0.871709
      pz      :     0.003390  p :     0.020054
      px      :     0.004568
      py      :     0.012096


                     *******************************
                     * LOEWDIN POPULATION ANALYSIS *
                     *******************************

----------------------
LOEWDIN ATOMIC CHARGES
----------------------
   0 C :   -0.349272
   1 O :    0.078595
   2 C :   -0.349236
   3 H :    0.098825
   4 H :    0.112322
   5 H :    0.098827
   6 H :    0.098815
   7 H :    0.112311
   8 H :    0.098812

-------------------------------
LOEWDIN REDUCED ORBITAL CHARGES
-------------------------------
  0 C s       :     2.869995  s :     2.869995
      pz      :     1.108730  p :     3.038278
      px      :     0.824361
      py      :     1.105187
      dz2     :     0.051353  d :     0.388846
      dxz     :     0.099219
      dyz     :     0.032499
      dx2y2   :     0.085187
      dxy     :     0.120588
      f0      :     0.004881  f :     0.052153
      f+1     :     0.007875
      f-1     :     0.003403
      f+2     :     0.008339
      f-2     :     0.002417
      f+3     :     0.011349
      f-3     :     0.013889
  1 O s       :     3.316262  s :     3.316262
      pz      :     1.508057  p :     4.496684
      px      :     1.336965
      py      :     1.651662
      dz2     :     0.022289  d :     0.102485
      dxz     :     0.024603
      dyz     :     0.013969
      dx2y2   :     0.024139
      dxy     :     0.017487
      f0      :     0.001013  f :     0.005973
      f+1     :     0.000814
      f-1     :     0.000732
      f+2     :     0.001154
      f-2     :     0.000516
      f+3     :     0.000795
      f-3     :     0.000947
  2 C s       :     2.869992  s :     2.869992
      pz      :     0.927220  p :     3.038241
      px      :     1.066351
      py      :     1.044670
      dz2     :     0.134875  d :     0.388848
      dxz     :     0.048713
      dyz     :     0.089034
      dx2y2   :     0.090937
      dxy     :     0.025289
      f0      :     0.008539  f :     0.052155
      f+1     :     0.009394
      f-1     :     0.011131
      f+2     :     0.007712
      f-2     :     0.009249
      f+3     :     0.004306
      f-3     :     0.001824
  3 H s       :     0.838991  s :     0.838991
      pz      :     0.013821  p :     0.062184
      px      :     0.013133
      py      :     0.035230
  4 H s       :     0.826691  s :     0.826691
      pz      :     0.031199  p :     0.060987
      px      :     0.010311
      py      :     0.019477
  5 H s       :     0.838989  s :     0.838989
      pz      :     0.029167  p :     0.062184
      px      :     0.013133
      py      :     0.019884
  6 H s       :     0.839002  s :     0.839002
      pz      :     0.029918  p :     0.062183
      px      :     0.014857
      py      :     0.017408
  7 H s       :     0.826703  s :     0.826703
      pz      :     0.010141  p :     0.060986
      px      :     0.038388
      py      :     0.012457
  8 H s       :     0.839004  s :     0.839004
      pz      :     0.010484  p :     0.062183
      px      :     0.014857
      py      :     0.036843


                      *****************************
                      * MAYER POPULATION ANALYSIS *
                      *****************************

  NA   - Mulliken gross atomic population
  ZA   - Total nuclear charge
  QA   - Mulliken gross atomic charge
  VA   - Mayer's total valence
  BVA  - Mayer's bonded valence
  FA   - Mayer's free valence

  ATOM       NA         ZA         QA         VA         BVA        FA
  0 C      6.2013     6.0000    -0.2013     3.9307     3.9307    -0.0000
  1 O      8.2993     8.0000    -0.2993     1.9807     1.9807     0.0000
  2 C      6.2009     6.0000    -0.2009     3.9307     3.9307     0.0000
  3 H      0.8917     1.0000     0.1083     0.9633     0.9633    -0.0000
  4 H      0.8658     1.0000     0.1342     0.9606     0.9606    -0.0000
  5 H      0.8916     1.0000     0.1084     0.9634     0.9634    -0.0000
  6 H      0.8917     1.0000     0.1083     0.9634     0.9634    -0.0000
  7 H      0.8658     1.0000     0.1342     0.9606     0.9606     0.0000
  8 H      0.8918     1.0000     0.1082     0.9634     0.9634     0.0000

  Mayer bond orders larger than 0.100000
B(  0-C ,  1-O ) :   0.9994 B(  0-C ,  3-H ) :   0.9696 B(  0-C ,  4-H ) :   0.9694 
B(  0-C ,  5-H ) :   0.9696 B(  1-O ,  2-C ) :   0.9994 B(  2-C ,  6-H ) :   0.9696 
B(  2-C ,  7-H ) :   0.9694 B(  2-C ,  8-H ) :   0.9696 

-------
TIMINGS
-------

Total SCF time: 0 days 0 hours 0 min 4 sec 

Total time                  ....       4.798 sec
Sum of individual times     ....       4.704 sec  ( 98.1%)

Fock matrix formation       ....       4.211 sec  ( 87.8%)
  Split-RI-J                ....       0.482 sec  ( 11.4% of F)
  Chain of spheres X        ....       2.754 sec  ( 65.4% of F)
  XC integration            ....       0.932 sec  ( 22.1% of F)
    Basis function eval.    ....       0.211 sec  ( 22.7% of XC)
    Density eval.           ....       0.129 sec  ( 13.8% of XC)
    XC-Functional eval.     ....       0.037 sec  (  4.0% of XC)
    XC-Potential eval.      ....       0.157 sec  ( 16.8% of XC)
Diagonalization             ....       0.062 sec  (  1.3%)
Density matrix formation    ....       0.003 sec  (  0.1%)
Population analysis         ....       0.008 sec  (  0.2%)
Initial guess               ....       0.034 sec  (  0.7%)
Orbital Transformation      ....       0.000 sec  (  0.0%)
Orbital Orthonormalization  ....       0.000 sec  (  0.0%)
DIIS solution               ....       0.048 sec  (  1.0%)
SOSCF solution              ....       0.052 sec  (  1.1%)
Grid generation             ....       0.285 sec  (  5.9%)

Maximum memory used throughout the entire SCF-calculation: 62.2 MB

-------------------------   --------------------
FINAL SINGLE POINT ENERGY      -154.900929775869
-------------------------   --------------------



           ************************************************************
           *        Program running with 6 parallel MPI-processes     *
           *              working on a common directory               *
           ************************************************************
------------------------------------------------------------------------------
                         ORCA SCF GRADIENT CALCULATION
------------------------------------------------------------------------------

 ... reading COSX grid (gridx3)
Gradient of the Kohn-Sham DFT energy:
Kohn-Sham wavefunction type      ... RKS
Hartree-Fock exchange scaling    ...    0.250
Number of operators              ...    1
Number of atoms                  ...    9
Basis set dimensions             ...  129
Integral neglect threshold       ... 2.5e-11
Integral primitive cutoff        ... 2.5e-12
SHARK Integral package           ... ON

Nuc. rep. gradient       (SHARK) ... done (  0.0 sec)
HCore & Overlap gradient (SHARK) ... done (  0.0 sec)
RI-J gradient            (SHARK) ... done (  0.1 sec)
COSX-gradient                    ... done (  0.6 sec)
Exchange-correlation gradient    ... done

------------------
CARTESIAN GRADIENT
------------------

   1   C   :    0.022724272   -0.001560670   -0.002650466
   2   O   :   -0.008290221   -0.005886248   -0.010380771
   3   C   :   -0.010499137    0.010240397    0.017650525
   4   H   :   -0.001104435   -0.003326714   -0.001347486
   5   H   :    0.004318179    0.000120459    0.000219622
   6   H   :   -0.001098011    0.000457516   -0.003579230
   7   H   :   -0.002354345    0.000903670   -0.002815017
   8   H   :   -0.001201412    0.002097000    0.003597651
   9   H   :   -0.002351353   -0.002890092   -0.000629430

Difference to translation invariance:
           :    0.0001435371    0.0001553157    0.0000653970

Difference to rotation invariance:
           :   -0.0000998430   -0.0003404473   -0.0000926449

Norm of the cartesian gradient     ...    0.0368512033
RMS gradient                       ...    0.0070920174
MAX gradient                       ...    0.0227242722

-------
TIMINGS
-------

Total SCF gradient time            ...        1.162 sec

One electron gradient       ....       0.038 sec  (  3.3%)
RI-J Coulomb gradient       ....       0.098 sec  (  8.4%)
COSX gradient               ....       0.599 sec  ( 51.5%)
XC gradient                 ....       0.223 sec  ( 19.2%)

Maximum memory used throughout the entire SCFGRAD-calculation: 36.8 MB
------------------------------------------------------------------------------
                         ORCA GEOMETRY RELAXATION STEP
------------------------------------------------------------------------------

Reading the OPT-File                    .... done
Getting information on internals        .... done
Copying old internal coords+grads       .... done
Making the new internal coordinates     .... (new redundants).... done
Validating the new internal coordinates .... (new redundants).... done
Calculating the B-matrix                .... done
Calculating the G,G- and P matrices     .... done
Transforming gradient to internals      .... done
Projecting the internal gradient        .... done
Number of atoms                         ....   9
Number of internal coordinates          ....  27
Current Energy                          ....  -154.900929776 Eh
Current gradient norm                   ....     0.036851203 Eh/bohr
Maximum allowed component of the step   ....  0.300
Current trust radius                    ....  0.300
Evaluating the initial hessian          ....  (Almloef) done
Projecting the Hessian                  .... done
Forming the augmented Hessian           .... done
Diagonalizing the augmented Hessian     .... done
Last element of RFO vector              ....  0.995825873
Lowest eigenvalues of augmented Hessian:
 -0.003667080  0.017373001  0.017373739  0.183679554  0.183686222
Length of the computed step             ....  0.091655966
The final length of the internal step   ....  0.091655966
Converting the step to cartesian space:
 Initial RMS(Int)=    0.0176391989
Transforming coordinates:
 Iter   0:  RMS(Cart)=    0.0456520637 RMS(Int)=    1.2090615219
 Iter   1:  RMS(Cart)=    0.0002280951 RMS(Int)=    0.0002582145
 Iter   2:  RMS(Cart)=    0.0000067070 RMS(Int)=    0.0000058272
 Iter   3:  RMS(Cart)=    0.0000001198 RMS(Int)=    0.0000000647
 Iter   4:  RMS(Cart)=    0.0000000014 RMS(Int)=    0.0000000016
done
Storing new coordinates                 .... done

                                .--------------------.
          ----------------------|Geometry convergence|-------------------------
          Item                value                   Tolerance       Converged
          ---------------------------------------------------------------------
          RMS gradient        0.0077653220            0.0000300000      NO
          MAX gradient        0.0251927238            0.0001000000      NO
          RMS step            0.0176391989            0.0006000000      NO
          MAX step            0.0532443724            0.0010000000      NO
          ........................................................
          Max(Bonds)      0.0282      Max(Angles)    2.14
          Max(Dihed)        0.14      Max(Improp)    0.00
          ---------------------------------------------------------------------

The optimization has not yet converged - more geometry cycles are needed


    ---------------------------------------------------------------------------
                         Redundant Internal Coordinates
                            (Angstroem and degrees)

        Definition                    Value    dE/dq     Step     New-Value
    ----------------------------------------------------------------------------
     1. B(O   1,C   0)                1.4378  0.025071 -0.0280    1.4098   
     2. B(C   2,O   1)                1.4378  0.025193 -0.0282    1.4096   
     3. B(H   3,C   0)                1.0918 -0.003475  0.0051    1.0969   
     4. B(H   4,C   0)                1.0911  0.000974 -0.0014    1.0897   
     5. B(H   5,C   0)                1.0918 -0.003466  0.0051    1.0969   
     6. B(H   6,C   2)                1.0918 -0.003446  0.0050    1.0969   
     7. B(H   7,C   2)                1.0911  0.000967 -0.0014    1.0897   
     8. B(H   8,C   2)                1.0918 -0.003478  0.0051    1.0969   
     9. A(H   3,C   0,H   4)          108.29 -0.002778    0.53    108.81   
    10. A(O   1,C   0,H   3)          111.12 -0.000485    0.06    111.18   
    11. A(O   1,C   0,H   4)          108.36  0.005773   -0.99    107.37   
    12. A(H   3,C   0,H   5)          109.56  0.000644   -0.16    109.40   
    13. A(O   1,C   0,H   5)          111.12 -0.000429    0.05    111.17   
    14. A(H   4,C   0,H   5)          108.29 -0.002815    0.53    108.82   
    15. A(C   0,O   1,C   2)          113.95  0.014637   -2.14    111.81   
    16. A(H   7,C   2,H   8)          108.29 -0.002831    0.54    108.82   
    17. A(H   6,C   2,H   8)          109.56  0.000632   -0.16    109.41   
    18. A(O   1,C   2,H   8)          111.12 -0.000440    0.05    111.18   
    19. A(H   6,C   2,H   7)          108.29 -0.002842    0.54    108.83   
    20. A(O   1,C   2,H   7)          108.36  0.005830   -1.00    107.36   
    21. A(O   1,C   2,H   6)          111.12 -0.000440    0.05    111.18   
    22. D(C   2,O   1,C   0,H   5)     61.14  0.000094   -0.06     61.08   
    23. D(C   2,O   1,C   0,H   3)    -61.14 -0.000090    0.06    -61.08   
    24. D(C   2,O   1,C   0,H   4)   -180.00 -0.000004    0.00   -180.00   
    25. D(H   8,C   2,O   1,C   0)     61.14  0.000123   -0.14     61.00   
    26. D(H   7,C   2,O   1,C   0)   -180.00  0.000033   -0.08   -180.08   
    27. D(H   6,C   2,O   1,C   0)    -61.14 -0.000070   -0.01    -61.15   
    ----------------------------------------------------------------------------

         *************************************************************
         *                GEOMETRY OPTIMIZATION CYCLE   2            *
         *************************************************************
---------------------------------
CARTESIAN COORDINATES (ANGSTROEM)
---------------------------------
  C      1.430328    0.000519    0.000673
  O      0.020864    0.014416    0.025968
  C     -0.476012    0.674258    1.168224
  H      1.836354    1.019181   -0.026207
  H      1.734211   -0.522929   -0.905432
  H      1.836982   -0.531069    0.869728
  H     -0.153491    0.171234    2.088065
  H     -1.563899    0.643860    1.113704
  H     -0.151997    1.721949    1.192936

----------------------------
CARTESIAN COORDINATES (A.U.)
----------------------------
  NO LB      ZA    FRAG     MASS         X           Y           Z
   0 C     6.0000    0    12.011    2.702929    0.000980    0.001272
   1 O     8.0000    0    15.999    0.039428    0.027243    0.049073
   2 C     6.0000    0    12.011   -0.899532    1.274162    2.207624
   3 H     1.0000    0     1.008    3.470205    1.925974   -0.049524
   4 H     1.0000    0     1.008    3.277184   -0.988192   -1.711018
   5 H     1.0000    0     1.008    3.471393   -1.003574    1.643549
   6 H     1.0000    0     1.008   -0.290057    0.323586    3.945870
   7 H     1.0000    0     1.008   -2.955342    1.216719    2.104595
   8 H     1.0000    0     1.008   -0.287233    3.254012    2.254322

--------------------------------
INTERNAL COORDINATES (ANGSTROEM)
--------------------------------
 C      0   0   0     0.000000000000     0.00000000     0.00000000
 O      1   0   0     1.409759667049     0.00000000     0.00000000
 C      2   1   0     1.409618793965   111.81248502     0.00000000
 H      1   2   3     1.096928654978   111.18340897   298.92078683
 H      1   2   3     1.089664204475   107.36602462   180.00111023
 H      1   2   3     1.096909157573   111.17458661    61.07710345
 H      3   2   1     1.096885470329   111.17553724   298.84564020
 H      3   2   1     1.089676895889   107.35606760   179.92058967
 H      3   2   1     1.096929058459   111.17530754    60.99902635

---------------------------
INTERNAL COORDINATES (A.U.)
---------------------------
 C      0   0   0     0.000000000000     0.00000000     0.00000000
 O      1   0   0     2.664059685371     0.00000000     0.00000000
 C      2   1   0     2.663793473823   111.81248502     0.00000000
 H      1   2   3     2.072894746360   111.18340897   298.92078683
 H      1   2   3     2.059166924394   107.36602462   180.00111023
 H      1   2   3     2.072857901603   111.17458661    61.07710345
 H      3   2   1     2.072813139199   111.17553724   298.84564020
 H      3   2   1     2.059190907691   107.35606760   179.92058967
 H      3   2   1     2.072895508828   111.17530754    60.99902635



           ************************************************************
           *        Program running with 6 parallel MPI-processes     *
           *              working on a common directory               *
           ************************************************************
------------------------------------------------------------------------------
                   ___                                                        
                  /   \      - P O W E R E D   B Y -                         
                 /     \                                                     
                 |  |  |   _    _      __       _____    __    __             
                 |  |  |  | |  | |    /  \     |  _  \  |  |  /  |          
                  \  \/   | |  | |   /    \    | | | |  |  | /  /          
                 / \  \   | |__| |  /  /\  \   | |_| |  |  |/  /          
                |  |  |   |  __  | /  /__\  \  |    /   |      \           
                |  |  |   | |  | | |   __   |  |    \   |  |\   \          
                \     /   | |  | | |  |  |  |  | |\  \  |  | \   \       
                 \___/    |_|  |_| |__|  |__|  |_| \__\ |__|  \__/        
                                                                              
                      - O R C A' S   B I G   F R I E N D -                    
                                      &                                       
                       - I N T E G R A L  F E E D E R -                       
                                                                              
 v1 FN, 2020, v2 2021                                                         
------------------------------------------------------------------------------


Reading SHARK input file dimethyl_ether_OPT.SHARKINP.tmp ... ok
----------------------
SHARK INTEGRAL PACKAGE
----------------------

Number of atoms                             ...      9
Number of basis functions                   ...    129
Number of shells                            ...     57
Maximum angular momentum                    ...      3
Integral batch strategy                     ... SHARK/LIBINT Hybrid
RI-J (if used) integral strategy            ... SPLIT-RIJ (Revised 2003 algorithm where possible)
Printlevel                                  ...      1
Contraction scheme used                     ... SEGMENTED contraction
Coulomb Range Separation                    ... NOT USED
Exchange Range Separation                   ... NOT USED
Finite Nucleus Model                        ... NOT USED
Auxiliary Coulomb fitting basis             ... AVAILABLE
   # of basis functions in Aux-J            ...    213
   # of shells in Aux-J                     ...     75
   Maximum angular momentum in Aux-J        ...      4
Auxiliary J/K fitting basis                 ... NOT available
Auxiliary Correlation fitting basis         ... NOT available
Auxiliary 'external' fitting basis          ... NOT available
Integral threshold                          ...     2.500000e-11
Primitive cut-off                           ...     2.500000e-12
Primitive pair pre-selection threshold      ...     2.500000e-12

Calculating pre-screening integrals         ... done (  0.0 sec) Dimension = 57
Organizing shell pair data                  ... done (  0.0 sec)
Shell pair information
Total number of shell pairs                 ...      1653
Shell pairs after pre-screening             ...      1630
Total number of primitive shell pairs       ...      4740
Primitive shell pairs kept                  ...      3953
          la=0 lb=0:    540 shell pairs
          la=1 lb=0:    493 shell pairs
          la=1 lb=1:    120 shell pairs
          la=2 lb=0:    198 shell pairs
          la=2 lb=1:     90 shell pairs
          la=2 lb=2:     21 shell pairs
          la=3 lb=0:     99 shell pairs
          la=3 lb=1:     45 shell pairs
          la=3 lb=2:     18 shell pairs
          la=3 lb=3:      6 shell pairs

Calculating one electron integrals          ... done (  0.0 sec)
Calculating RI/J V-Matrix + Cholesky decomp.... done (  0.0 sec)
Calculating Nuclear repulsion               ... done (  0.0 sec) ENN=     84.017245172656 Eh

SHARK setup successfully completed in   0.1 seconds

Maximum memory used throughout the entire GTOINT-calculation: 13.8 MB


           ************************************************************
           *        Program running with 6 parallel MPI-processes     *
           *              working on a common directory               *
           ************************************************************

Diagonalization of the overlap matrix:
Smallest eigenvalue                        ... 1.034e-03
Time for diagonalization                   ...    0.002 sec
Threshold for overlap eigenvalues          ... 1.000e-08
Number of eigenvalues below threshold      ... 0
Time for construction of square roots      ...    0.001 sec
Total time needed                          ...    0.003 sec

-------------------
DFT GRID GENERATION
-------------------

General Integration Accuracy     IntAcc      ... 4.388
Radial Grid Type                 RadialGrid  ... OptM3 with GC (2021)
Angular Grid (max. ang.)         AngularGrid ... 4 (Lebedev-302)
Angular grid pruning method      GridPruning ... 4 (adaptive)
Weight generation scheme         WeightScheme... Becke
Basis function cutoff            BFCut       ... 1.0000e-11
Integration weight cutoff        WCut        ... 1.0000e-14
Angular grids for H and He will be reduced by one unit
Partially contracted basis set               ... off
Rotationally invariant grid construction     ... off

Total number of grid points                  ...    37772
Total number of batches                      ...      594
Average number of points per batch           ...       63
Average number of grid points per atom       ...     4197
Time for grid setup =    0.138 sec

--------------------
COSX GRID GENERATION
--------------------

GRIDX 1
-------
General Integration Accuracy     IntAcc      ... 3.816
Radial Grid Type                 RadialGrid  ... OptM3 with GC (2021)
Angular Grid (max. ang.)         AngularGrid ... 1 (Lebedev-50)
Angular grid pruning method      GridPruning ... 4 (adaptive)
Weight generation scheme         WeightScheme... Becke
Basis function cutoff            BFCut       ... 1.0000e-11
Integration weight cutoff        WCut        ... 1.0000e-14
Angular grids for H and He will be reduced by one unit
Partially contracted basis set               ... on
Rotationally invariant grid construction     ... off

Total number of grid points                  ...     4880
Total number of batches                      ...       83
Average number of points per batch           ...       58
Average number of grid points per atom       ...      542
UseSFitting                                  ... on

GRIDX 2
-------
General Integration Accuracy     IntAcc      ... 4.020
Radial Grid Type                 RadialGrid  ... OptM3 with GC (2021)
Angular Grid (max. ang.)         AngularGrid ... 2 (Lebedev-110)
Angular grid pruning method      GridPruning ... 4 (adaptive)
Weight generation scheme         WeightScheme... Becke
Basis function cutoff            BFCut       ... 1.0000e-11
Integration weight cutoff        WCut        ... 1.0000e-14
Angular grids for H and He will be reduced by one unit
Partially contracted basis set               ... on
Rotationally invariant grid construction     ... off

Total number of grid points                  ...    10234
Total number of batches                      ...      165
Average number of points per batch           ...       62
Average number of grid points per atom       ...     1137
UseSFitting                                  ... on

GRIDX 3
-------
General Integration Accuracy     IntAcc      ... 4.338
Radial Grid Type                 RadialGrid  ... OptM3 with GC (2021)
Angular Grid (max. ang.)         AngularGrid ... 3 (Lebedev-194)
Angular grid pruning method      GridPruning ... 4 (adaptive)
Weight generation scheme         WeightScheme... Becke
Basis function cutoff            BFCut       ... 1.0000e-11
Integration weight cutoff        WCut        ... 1.0000e-14
Angular grids for H and He will be reduced by one unit
Partially contracted basis set               ... on
Rotationally invariant grid construction     ... off

Total number of grid points                  ...    22476
Total number of batches                      ...      355
Average number of points per batch           ...       63
Average number of grid points per atom       ...     2497
UseSFitting                                  ... on

Time for X-Grid setup             =    0.107 sec

--------------
SCF ITERATIONS
--------------
ITER       Energy         Delta-E        Max-DP      RMS-DP      [F,P]     Damp
               ***  Starting incremental Fock matrix formation  ***
  0   -154.9023572256   0.000000000000 0.00143235  0.00007215  0.0113327 0.7000
                      *** Initiating the SOSCF procedure ***
                      *** Re-Reading the Fockian *** 
                      *** Removing any level shift *** 
ITER      Energy       Delta-E        Grad      Rot      Max-DP    RMS-DP
  1   -154.90257427  -0.0002170426  0.001345  0.001345  0.003362  0.000211
               *** Restarting incremental Fock matrix formation ***
  2   -154.90310881  -0.0005345374  0.001288  0.003041  0.002746  0.000105
  3   -154.90310527   0.0000035307  0.002102  0.001034  0.001549  0.000047
  4   -154.90314014  -0.0000348662  0.000139  0.000172  0.000152  0.000007
  5   -154.90314036  -0.0000002141  0.000077  0.000074  0.000055  0.000003
  6   -154.90314049  -0.0000001359  0.000013  0.000020  0.000024  0.000001
  7   -154.90314049  -0.0000000009  0.000010  0.000009  0.000010  0.000000
                 **** Energy Check signals convergence ****
              ***Rediagonalizing the Fockian in SOSCF/NRSCF***

               *****************************************************
               *                     SUCCESS                       *
               *           SCF CONVERGED AFTER   8 CYCLES          *
               *****************************************************

Old exchange energy                            =     -5.179878403 Eh
New exchange energy                            =     -5.179880926 Eh
Exchange energy change after final integration =     -0.000002523 Eh
Total energy after final integration           =   -154.903143019 Eh
Final COS-X integration done in                =     0.444 sec
Total Energy       :         -154.90314302 Eh           -4215.12881 eV
  Last Energy change         ...   -3.6881e-09  Tolerance :   1.0000e-08
  Last MAX-Density change    ...    1.3323e-15  Tolerance :   1.0000e-07
             **** THE GBW FILE WAS UPDATED (dimethyl_ether_OPT.gbw) ****
             **** DENSITY dimethyl_ether_OPT.scfp WAS UPDATED ****
             **** ENERGY FILE WAS UPDATED (dimethyl_ether_OPT.en.tmp) ****
             **** THE GBW FILE WAS UPDATED (dimethyl_ether_OPT.gbw) ****
             **** DENSITY dimethyl_ether_OPT.scfp WAS UPDATED ****
Total SCF time: 0 days 0 hours 0 min 3 sec 

Maximum memory used throughout the entire SCF-calculation: 62.3 MB

-------------------------   --------------------
FINAL SINGLE POINT ENERGY      -154.903143018991
-------------------------   --------------------



           ************************************************************
           *        Program running with 6 parallel MPI-processes     *
           *              working on a common directory               *
           ************************************************************
------------------------------------------------------------------------------
                         ORCA SCF GRADIENT CALCULATION
------------------------------------------------------------------------------

 ... reading COSX grid (gridx3)
Gradient of the Kohn-Sham DFT energy:
Kohn-Sham wavefunction type      ... RKS
Hartree-Fock exchange scaling    ...    0.250
Number of operators              ...    1
Number of atoms                  ...    9
Basis set dimensions             ...  129
Integral neglect threshold       ... 2.5e-11
Integral primitive cutoff        ... 2.5e-12
SHARK Integral package           ... ON

Nuc. rep. gradient       (SHARK) ... done (  0.0 sec)
HCore & Overlap gradient (SHARK) ... done (  0.0 sec)
RI-J gradient            (SHARK) ... done (  0.1 sec)
COSX-gradient                    ... done (  0.4 sec)
Exchange-correlation gradient    ... done

------------------
CARTESIAN GRADIENT
------------------

   1   C   :    0.008187102    0.000906505    0.001583130
   2   O   :   -0.003389325   -0.002464171   -0.004283390
   3   C   :   -0.001023491    0.004155560    0.007165831
   4   H   :   -0.001135272   -0.000683521   -0.001037636
   5   H   :   -0.000067892    0.000222424    0.000380340
   6   H   :   -0.001149063   -0.000593986   -0.001134997
   7   H   :   -0.000833080   -0.000699221   -0.001354340
   8   H   :    0.000435508    0.000051471    0.000044972
   9   H   :   -0.000819050   -0.000793835   -0.001285090

Difference to translation invariance:
           :    0.0002054378    0.0001012266    0.0000788203

Difference to rotation invariance:
           :   -0.0000761014   -0.0003475710   -0.0000517550

Norm of the cartesian gradient     ...    0.0137144436
RMS gradient                       ...    0.0026393459
MAX gradient                       ...    0.0081871021

-------
TIMINGS
-------

Total SCF gradient time            ...        0.877 sec

One electron gradient       ....       0.009 sec  (  1.1%)
RI-J Coulomb gradient       ....       0.093 sec  ( 10.6%)
COSX gradient               ....       0.446 sec  ( 50.8%)
XC gradient                 ....       0.197 sec  ( 22.5%)

Maximum memory used throughout the entire SCFGRAD-calculation: 36.8 MB
------------------------------------------------------------------------------
                         ORCA GEOMETRY RELAXATION STEP
------------------------------------------------------------------------------

Reading the OPT-File                    .... done
Getting information on internals        .... done
Copying old internal coords+grads       .... done
Making the new internal coordinates     .... (new redundants).... done
Validating the new internal coordinates .... (new redundants).... done
Calculating the B-matrix                .... done
Calculating the G,G- and P matrices     .... done
Transforming gradient to internals      .... done
Projecting the internal gradient        .... done
Number of atoms                         ....   9
Number of internal coordinates          ....  27
Current Energy                          ....  -154.903143019 Eh
Current gradient norm                   ....     0.013714444 Eh/bohr
Maximum allowed component of the step   ....  0.300
Current trust radius                    ....  0.300
Updating the Hessian (BFGS)             .... done
Forming the augmented Hessian           .... done
Diagonalizing the augmented Hessian     .... done
Last element of RFO vector              ....  0.999538249
Lowest eigenvalues of augmented Hessian:
 -0.000263004  0.017372861  0.017373682  0.180573878  0.183679581
Length of the computed step             ....  0.030399688
The final length of the internal step   ....  0.030399688
Converting the step to cartesian space:
 Initial RMS(Int)=    0.0058504228
Transforming coordinates:
 Iter   0:  RMS(Cart)=    0.0087877524 RMS(Int)=    1.2090030403
 Iter   1:  RMS(Cart)=    0.0000129418 RMS(Int)=    0.0000136490
 Iter   2:  RMS(Cart)=    0.0000000463 RMS(Int)=    0.0000000651
done
Storing new coordinates                 .... done

                                .--------------------.
          ----------------------|Geometry convergence|-------------------------
          Item                value                   Tolerance       Converged
          ---------------------------------------------------------------------
          Energy change      -0.0022132431            0.0000010000      NO
          RMS gradient        0.0017390849            0.0000300000      NO
          MAX gradient        0.0057796866            0.0001000000      NO
          RMS step            0.0058504228            0.0006000000      NO
          MAX step            0.0165713906            0.0010000000      NO
          ........................................................
          Max(Bonds)      0.0088      Max(Angles)    0.55
          Max(Dihed)        0.32      Max(Improp)    0.00
          ---------------------------------------------------------------------

The optimization has not yet converged - more geometry cycles are needed


    ---------------------------------------------------------------------------
                         Redundant Internal Coordinates
                            (Angstroem and degrees)

        Definition                    Value    dE/dq     Step     New-Value
    ----------------------------------------------------------------------------
     1. B(O   1,C   0)                1.4098  0.005716 -0.0087    1.4011   
     2. B(C   2,O   1)                1.4096  0.005780 -0.0088    1.4008   
     3. B(H   3,C   0)                1.0969 -0.001051  0.0020    1.0990   
     4. B(H   4,C   0)                1.0897 -0.000428  0.0007    1.0904   
     5. B(H   5,C   0)                1.0969 -0.001060  0.0021    1.0990   
     6. B(H   6,C   2)                1.0969 -0.001055  0.0021    1.0989   
     7. B(H   7,C   2)                1.0897 -0.000423  0.0007    1.0904   
     8. B(H   8,C   2)                1.0969 -0.001045  0.0020    1.0990   
[...]
-----------------------

Scaling factor for frequencies =  1.000000000  (already applied!)

   0:         0.00 cm**-1
   1:         0.00 cm**-1
   2:         0.00 cm**-1
   3:         0.00 cm**-1
   4:         0.00 cm**-1
   5:         0.00 cm**-1
   6:       214.68 cm**-1
   7:       247.21 cm**-1
   8:       412.34 cm**-1
   9:       976.63 cm**-1
  10:      1133.57 cm**-1
  11:      1163.50 cm**-1
  12:      1194.17 cm**-1
  13:      1225.62 cm**-1
  14:      1270.53 cm**-1
  15:      1453.86 cm**-1
  16:      1475.34 cm**-1
  17:      1483.67 cm**-1
  18:      1484.02 cm**-1
  19:      1491.01 cm**-1
  20:      1510.26 cm**-1
  21:      2976.76 cm**-1
  22:      2988.24 cm**-1
  23:      3026.88 cm**-1
  24:      3033.06 cm**-1
  25:      3133.89 cm**-1
  26:      3135.43 cm**-1


------------
NORMAL MODES
------------

These modes are the Cartesian displacements weighted by the diagonal matrix
M(i,i)=1/sqrt(m[i]) where m[i] is the mass of the displaced atom
Thus, these vectors are normalized but *not* orthogonal

                  0          1          2          3          4          5    
      0       0.000000   0.000000   0.000000   0.000000   0.000000   0.000000
      1       0.000000   0.000000   0.000000   0.000000   0.000000   0.000000
      2       0.000000   0.000000   0.000000   0.000000   0.000000   0.000000
      3       0.000000   0.000000   0.000000   0.000000   0.000000   0.000000
      4       0.000000   0.000000   0.000000   0.000000   0.000000   0.000000
      5       0.000000   0.000000   0.000000   0.000000   0.000000   0.000000
      6       0.000000   0.000000   0.000000   0.000000   0.000000   0.000000
      7       0.000000   0.000000   0.000000   0.000000   0.000000   0.000000
      8       0.000000   0.000000   0.000000   0.000000   0.000000   0.000000
      9       0.000000   0.000000   0.000000   0.000000   0.000000   0.000000
     10       0.000000   0.000000   0.000000   0.000000   0.000000   0.000000
     11       0.000000   0.000000   0.000000   0.000000   0.000000   0.000000
     12       0.000000   0.000000   0.000000   0.000000   0.000000   0.000000
     13       0.000000   0.000000   0.000000   0.000000   0.000000   0.000000
     14       0.000000   0.000000   0.000000   0.000000   0.000000   0.000000
     15       0.000000   0.000000   0.000000   0.000000   0.000000   0.000000
     16       0.000000   0.000000   0.000000   0.000000   0.000000   0.000000
     17       0.000000   0.000000   0.000000   0.000000   0.000000   0.000000
     18       0.000000   0.000000   0.000000   0.000000   0.000000   0.000000
     19       0.000000   0.000000   0.000000   0.000000   0.000000   0.000000
     20       0.000000   0.000000   0.000000   0.000000   0.000000   0.000000
     21       0.000000   0.000000   0.000000   0.000000   0.000000   0.000000
     22       0.000000   0.000000   0.000000   0.000000   0.000000   0.000000
     23       0.000000   0.000000   0.000000   0.000000   0.000000   0.000000
     24       0.000000   0.000000   0.000000   0.000000   0.000000   0.000000
     25       0.000000   0.000000   0.000000   0.000000   0.000000   0.000000
     26       0.000000   0.000000   0.000000   0.000000   0.000000   0.000000
                  6          7          8          9         10         11    
      0      -0.000102  -0.000077   0.096084   0.290014   0.087081   0.000135
      1      -0.028728   0.046198  -0.078436  -0.031864   0.046540  -0.085915
      2       0.016727  -0.026582  -0.136009  -0.055535   0.080318   0.049729
      3      -0.000064   0.000036   0.103466  -0.142895  -0.055458  -0.000013
      4      -0.000258  -0.106860   0.073086  -0.100607   0.019555   0.000162
      5       0.000048   0.061573   0.126714  -0.174137   0.033929  -0.000111
      6       0.000148   0.000038  -0.180093  -0.156711  -0.058187  -0.000136
      7       0.028940   0.046037   0.019113   0.125640  -0.056648   0.085593
      8      -0.016773  -0.026565   0.033150   0.217770  -0.097852  -0.049428
      9       0.034893  -0.125152   0.258560   0.139190   0.289105  -0.452340
     10      -0.034844   0.104061  -0.148541   0.013976  -0.047379   0.093088
     11       0.423633   0.317309  -0.271680   0.045856  -0.183945  -0.096183
     12      -0.000204   0.000154  -0.237181   0.582038  -0.487126   0.000336
     13       0.320264   0.418238  -0.128290   0.010304  -0.036631   0.188538
     14      -0.185798  -0.242366  -0.224188   0.017371  -0.062988  -0.109448
     15      -0.035024   0.124695   0.259821   0.137543   0.290334   0.451710
     16      -0.385029  -0.223444  -0.162505   0.032286  -0.135672   0.130302
     17      -0.179490  -0.246995  -0.265505   0.034744  -0.132546  -0.032992
     18       0.316466  -0.351263  -0.378497  -0.002150   0.268208   0.116373
     19       0.284007  -0.056321   0.063899   0.082447  -0.060776  -0.329608
     20       0.008486   0.042008   0.125385   0.121153  -0.207672  -0.314861
     21      -0.000707   0.000957  -0.164407  -0.174709  -0.093437  -0.000912
     22      -0.319101   0.420425  -0.155131   0.277181   0.241428  -0.187361
     23       0.183711  -0.242333  -0.267992   0.480821   0.417300   0.109822
     24      -0.314947   0.350493  -0.379489  -0.002274   0.268861  -0.114955
     25       0.136273  -0.065909   0.077421   0.063247  -0.150892   0.106304
     26      -0.250755   0.028374   0.118418   0.130837  -0.159747   0.441828
                 12         13         14         15         16         17    
      0      -0.000967  -0.257590  -0.027567  -0.061550   0.000054   0.078787
      1       0.088759   0.043649  -0.063862   0.003734  -0.033447  -0.016054
      2      -0.050786   0.078343  -0.110685   0.006378   0.019235  -0.020471
      3       0.001121   0.317482   0.073508  -0.034150   0.000047  -0.005196
      4      -0.081211  -0.111278   0.052037   0.012080   0.000083  -0.004879
      5       0.045929  -0.195514   0.090223   0.020921   0.000004  -0.005642
      6      -0.000554  -0.170919  -0.111411  -0.027433   0.000067  -0.050631
      7       0.089346   0.105563  -0.034372   0.027799   0.033761   0.029597
      8      -0.050678   0.185826  -0.059663   0.048118  -0.019291   0.058735
      9       0.447964   0.104159  -0.227668   0.358899   0.206870  -0.199239
     10      -0.097239  -0.079248   0.036003  -0.151930  -0.100365   0.104208
     11       0.111591  -0.208620   0.248605  -0.052077  -0.261186   0.221642
     12      -0.003207  -0.474901   0.492499   0.408058  -0.001021  -0.465857
     13      -0.171742   0.006177   0.013327   0.068263   0.433221  -0.045796
     14       0.099534   0.005531   0.024090   0.118601  -0.251936  -0.172378
     15      -0.445486   0.116312  -0.230040   0.359474  -0.206546  -0.236075
     16      -0.147400  -0.137464   0.196990   0.029916   0.179291   0.172934
     17       0.027205  -0.172749   0.154464  -0.158614   0.218073   0.241211
     18       0.104295   0.242502   0.296698   0.233832  -0.333195   0.358327
     19      -0.341969   0.019440   0.011775  -0.240645   0.011784  -0.036851
     20      -0.310962  -0.038532  -0.165955  -0.205458   0.111109  -0.121243
     21      -0.001247  -0.166278  -0.138475   0.007151  -0.001142  -0.006725
     22      -0.171587   0.226207   0.237387  -0.215167  -0.437763  -0.206347
     23       0.101769   0.385725   0.410416  -0.372927   0.252131  -0.455093
     24      -0.101994   0.245100   0.296273   0.234915   0.332858   0.296540
     25       0.096674  -0.046860  -0.150897  -0.057906  -0.091239  -0.072087
     26       0.450888  -0.015904  -0.073827  -0.310948  -0.067586  -0.080534
                 18         19         20         21         22         23    
      0      -0.006872  -0.011928   0.042046   0.028964  -0.030559   0.000161
      1      -0.033510  -0.019911   0.011043   0.010682  -0.010247  -0.057578
      2       0.021417  -0.035349   0.019031   0.018026  -0.017187   0.033344
      3       0.000436   0.008063   0.014542   0.003584  -0.001584   0.000003
      4      -0.012714  -0.002703   0.010268  -0.001261  -0.001147  -0.000335
      5       0.008005  -0.004979   0.017821  -0.002171  -0.001988   0.000201
      6       0.004543   0.034037   0.006616  -0.009925  -0.008759  -0.000103
      7      -0.036800   0.012783   0.023293  -0.016940  -0.018033  -0.055654
      8       0.015095   0.021681   0.040666  -0.029234  -0.031063   0.032150
      9       0.219900   0.169550  -0.328065  -0.168945   0.175621   0.187839
     10      -0.115007  -0.067161   0.136940  -0.455639   0.447130   0.468486
     11      -0.276571   0.434769  -0.347127   0.017235  -0.019572  -0.000518
     12       0.036969  -0.222535   0.067258  -0.047468   0.050073  -0.000621
     13       0.449191  -0.049977   0.009473   0.090997  -0.087401  -0.013754
     14      -0.245012  -0.072001   0.014981   0.156594  -0.150391   0.010438
     15      -0.177676   0.174739  -0.328575  -0.168433   0.174776  -0.189218
     16       0.166708   0.406231  -0.369271   0.239562  -0.237022   0.233885
     17       0.203139   0.151202  -0.052483  -0.384953   0.375821  -0.408714
     18       0.295715  -0.264041  -0.107924   0.141825   0.137305  -0.153099
     19      -0.013300  -0.377143  -0.445214  -0.229963  -0.228468   0.217634
     20      -0.092855  -0.101267  -0.188758   0.393638   0.404480  -0.411950
     21       0.001833   0.008075  -0.005747  -0.184833  -0.183849   0.000260
     22       0.461773   0.114485   0.035068  -0.007434  -0.005185  -0.014232
     23      -0.215065   0.207864   0.059326  -0.013649  -0.009766   0.008209
     24      -0.355906  -0.257193  -0.107607   0.144104   0.139724   0.154104
     25       0.090211   0.101409   0.060881   0.457048   0.466127   0.462541
     26       0.064249  -0.378677  -0.480125  -0.000851   0.005913   0.018943
                 24         25         26    
      0      -0.000140  -0.008047   0.009593
      1       0.056506   0.031068  -0.031684
      2      -0.032676   0.053837  -0.054927
      3      -0.000008  -0.000385  -0.000104
      4      -0.000003   0.000129  -0.000074
      5       0.000009   0.000234  -0.000127
      6      -0.000106  -0.062422  -0.061864
      7      -0.058476  -0.006568  -0.005854
      8       0.033740  -0.011682  -0.010365
      9      -0.173873  -0.040538   0.042409
     10      -0.455918  -0.108772   0.108512
     11      -0.001278   0.013942  -0.015506
     12       0.000671   0.184198  -0.187097
     13       0.015705  -0.327325   0.333648
     14      -0.011757  -0.563936   0.574839
     15       0.174976  -0.041473   0.043395
     16      -0.225846   0.067078  -0.068356
     17       0.398187  -0.089541   0.088607
     18      -0.163920   0.027373   0.024376
     19       0.229752  -0.063320  -0.060850
     20      -0.421083   0.099048   0.096769
     21       0.000076   0.688369   0.676397
     22      -0.017357   0.020958   0.020907
     23       0.010007   0.039408   0.039273
     24       0.165131   0.027873   0.025021
     25       0.477197   0.117390   0.114612
     26       0.013110  -0.004950  -0.003976


-----------
IR SPECTRUM
-----------

 Mode   freq       eps      Int      T**2         TX        TY        TZ
       cm**-1   L/(mol*cm) km/mol    a.u.
----------------------------------------------------------------------------
  6:    214.68   0.000000    0.00  0.000000  (-0.000081  0.000007 -0.000140)
  7:    247.21   0.001109    5.60  0.001400  (-0.000003  0.032397 -0.018710)
  8:    412.34   0.000472    2.38  0.000357  (-0.010950 -0.007674 -0.013349)
  9:    976.63   0.007329   37.04  0.002342  ( 0.028038  0.019751  0.034142)
 10:   1133.57   0.003737   18.89  0.001029  ( 0.026176 -0.009254 -0.016061)
 11:   1163.50   0.000000    0.00  0.000000  ( 0.000015 -0.000016 -0.000017)
 12:   1194.17   0.001309    6.62  0.000342  (-0.000505  0.016178 -0.008952)
 13:   1225.62   0.025241  127.56  0.006427  (-0.065430  0.022988  0.040215)
 14:   1270.53   0.001266    6.40  0.000311  (-0.010112 -0.007214 -0.012513)
 15:   1453.86   0.000325    1.64  0.000070  (-0.006825  0.002325  0.004203)
 16:   1475.34   0.000000    0.00  0.000000  (-0.000118 -0.000072  0.000028)
 17:   1483.67   0.000053    0.27  0.000011  ( 0.001474  0.002939  0.000581)
 18:   1484.02   0.003058   15.45  0.000643  (-0.000348  0.021966 -0.012664)
 19:   1491.01   0.002807   14.19  0.000587  (-0.019802  0.006729  0.012251)
 20:   1510.26   0.000684    3.46  0.000141  (-0.006830 -0.004860 -0.008429)
 21:   2976.76   0.011000   55.59  0.001153  ( 0.027865 -0.009633 -0.016852)
 22:   2988.24   0.011881   60.04  0.001241  (-0.020150 -0.014530 -0.024972)
 23:   3026.88   0.025925  131.01  0.002673  ( 0.000067 -0.044760  0.025871)
 24:   3033.06   0.000008    0.04  0.000001  (-0.000158 -0.000779  0.000480)
 25:   3133.89   0.005965   30.15  0.000594  (-0.019994  0.007006  0.012050)
 26:   3135.43   0.004219   21.32  0.000420  (-0.011663 -0.008381 -0.014618)

* The epsilon (eps) is given for a Dirac delta lineshape.
** The dipole moment derivative (T) already includes vibrational overlap.

The first frequency considered to be a vibration is 6
The total number of vibrations considered is 21


--------------------------
THERMOCHEMISTRY AT 298.15K
--------------------------

Temperature         ... 298.15 K
Pressure            ... 1.00 atm
Total Mass          ... 46.07 AMU

Throughout the following assumptions are being made:
  (1) The electronic state is orbitally nondegenerate
  (2) There are no thermally accessible electronically excited states
  (3) Hindered rotations indicated by low frequency modes are not
      treated as such but are treated as vibrations and this may
      cause some error
  (4) All equations used are the standard statistical mechanics
      equations for an ideal gas
  (5) All vibrations are strictly harmonic

freq.     214.68  E(vib)   ...       0.34 
freq.     247.21  E(vib)   ...       0.31 
freq.     412.34  E(vib)   ...       0.19 
freq.     976.63  E(vib)   ...       0.03 
freq.    1133.57  E(vib)   ...       0.01 
freq.    1163.50  E(vib)   ...       0.01 
freq.    1194.17  E(vib)   ...       0.01 
freq.    1225.62  E(vib)   ...       0.01 
freq.    1270.53  E(vib)   ...       0.01 
freq.    1453.86  E(vib)   ...       0.00 
freq.    1475.34  E(vib)   ...       0.00 
freq.    1483.67  E(vib)   ...       0.00 
freq.    1484.02  E(vib)   ...       0.00 
freq.    1491.01  E(vib)   ...       0.00 
freq.    1510.26  E(vib)   ...       0.00 
freq.    2976.76  E(vib)   ...       0.00 
freq.    2988.24  E(vib)   ...       0.00 
freq.    3026.88  E(vib)   ...       0.00 
freq.    3033.06  E(vib)   ...       0.00 
freq.    3133.89  E(vib)   ...       0.00 
freq.    3135.43  E(vib)   ...       0.00 

------------
INNER ENERGY
------------

The inner energy is: U= E(el) + E(ZPE) + E(vib) + E(rot) + E(trans)
    E(el)   - is the total energy from the electronic structure calculation
              = E(kin-el) + E(nuc-el) + E(el-el) + E(nuc-nuc)
    E(ZPE)  - the the zero temperature vibrational energy from the frequency calculation
    E(vib)  - the the finite temperature correction to E(ZPE) due to population
              of excited vibrational states
    E(rot)  - is the rotational thermal energy
    E(trans)- is the translational thermal energy

Summary of contributions to the inner energy U:
Electronic energy                ...   -154.90332878 Eh
Zero point energy                ...      0.07980577 Eh      50.08 kcal/mol
Thermal vibrational correction   ...      0.00148429 Eh       0.93 kcal/mol
Thermal rotational correction    ...      0.00141627 Eh       0.89 kcal/mol
Thermal translational correction ...      0.00141627 Eh       0.89 kcal/mol
-----------------------------------------------------------------------
Total thermal energy                   -154.81920618 Eh


Summary of corrections to the electronic energy:
(perhaps to be used in another calculation)
Total thermal correction                  0.00431683 Eh       2.71 kcal/mol
Non-thermal (ZPE) correction              0.07980577 Eh      50.08 kcal/mol
-----------------------------------------------------------------------
Total correction                          0.08412260 Eh      52.79 kcal/mol


--------
ENTHALPY
--------

The enthalpy is H = U + kB*T
                kB is Boltzmann's constant
Total free energy                 ...   -154.81920618 Eh 
Thermal Enthalpy correction       ...      0.00094421 Eh       0.59 kcal/mol
-----------------------------------------------------------------------
Total Enthalpy                    ...   -154.81826197 Eh


Note: Only C1 symmetry has been detected, increase convergence thresholds 
      if your molecule has a higher symmetry. Symmetry factor of 1.0 is   
      used for the rotational entropy correction. 
 

Note: Rotational entropy computed according to Herzberg 
Infrared and Raman Spectra, Chapter V,1, Van Nostrand Reinhold, 1945 
Point Group:  C1, Symmetry Number:   1  
Rotational constants in cm-1:     1.317439     0.339128     0.300454 

Vibrational entropy computed according to the QRRHO of S. Grimme
Chem.Eur.J. 2012 18 9955


-------
ENTROPY
-------

The entropy contributions are T*S = T*(S(el)+S(vib)+S(rot)+S(trans))
     S(el)   - electronic entropy
     S(vib)  - vibrational entropy
     S(rot)  - rotational entropy
     S(trans)- translational entropy
The entropies will be listed as multiplied by the temperature to get
units of energy

Electronic entropy                ...      0.00000000 Eh      0.00 kcal/mol
Vibrational entropy               ...      0.00241163 Eh      1.51 kcal/mol
Rotational entropy                ...      0.01045884 Eh      6.56 kcal/mol
Translational entropy             ...      0.01777359 Eh     11.15 kcal/mol
-----------------------------------------------------------------------
Final entropy term                ...      0.03064406 Eh     19.23 kcal/mol

In case the symmetry of your molecule has not been determined correctly
or in case you have a reason to use a different symmetry number we print 
out the resulting rotational entropy values for sn=1,12 :
 --------------------------------------------------------
|  sn= 1 | S(rot)=       0.01045884 Eh      6.56 kcal/mol|
|  sn= 2 | S(rot)=       0.00980438 Eh      6.15 kcal/mol|
|  sn= 3 | S(rot)=       0.00942155 Eh      5.91 kcal/mol|
|  sn= 4 | S(rot)=       0.00914993 Eh      5.74 kcal/mol|
|  sn= 5 | S(rot)=       0.00893924 Eh      5.61 kcal/mol|
|  sn= 6 | S(rot)=       0.00876709 Eh      5.50 kcal/mol|
|  sn= 7 | S(rot)=       0.00862155 Eh      5.41 kcal/mol|
|  sn= 8 | S(rot)=       0.00849547 Eh      5.33 kcal/mol|
|  sn= 9 | S(rot)=       0.00838426 Eh      5.26 kcal/mol|
|  sn=10 | S(rot)=       0.00828478 Eh      5.20 kcal/mol|
|  sn=11 | S(rot)=       0.00819479 Eh      5.14 kcal/mol|
|  sn=12 | S(rot)=       0.00811264 Eh      5.09 kcal/mol|
 --------------------------------------------------------


-------------------
GIBBS FREE ENERGY
-------------------

The Gibbs free energy is G = H - T*S

Total enthalpy                    ...   -154.81826197 Eh 
Total entropy correction          ...     -0.03064406 Eh    -19.23 kcal/mol
-----------------------------------------------------------------------
Final Gibbs free energy         ...   -154.84890603 Eh

For completeness - the Gibbs free energy minus the electronic energy
G-E(el)                           ...      0.05442275 Eh     34.15 kcal/mol


Timings for individual modules:

Sum of individual times         ...       49.701 sec (=   0.828 min)
GTO integral calculation        ...        1.307 sec (=   0.022 min)   2.6 %
SCF iterations                  ...       20.166 sec (=   0.336 min)  40.6 %
SCF Gradient evaluation         ...        5.531 sec (=   0.092 min)  11.1 %
Geometry relaxation             ...        0.041 sec (=   0.001 min)   0.1 %
Analytical frequency calculation...       22.657 sec (=   0.378 min)  45.6 %
                             ****ORCA TERMINATED NORMALLY****
TOTAL RUN TIME: 0 days 0 hours 0 minutes 50 seconds 396 msec
