
                                 *****************
                                 * O   R   C   A *
                                 *****************

           --- An Ab Initio, DFT and Semiempirical electronic structure package ---

                  #######################################################
                  #                        -***-                        #
                  #          Department of theory and spectroscopy      #
                  #               Directorship: Frank Neese             #
                  #        Max Planck Institute fuer Kohlenforschung    #
                  #                Kaiser Wilhelm Platz 1               #
                  #                 D-45470 Muelheim/Ruhr               #
                  #                      Germany                        #
                  #                                                     #
                  #                  All rights reserved                #
                  #                        -***-                        #
                  #######################################################


                         Program Version 4.2.1 -  RELEASE  -


 With contributions from (in alphabetic order):
   Daniel Aravena         : Magnetic Suceptibility
   Michael Atanasov       : Ab Initio Ligand Field Theory (pilot matlab implementation)
   Alexander A. Auer      : GIAO ZORA, VPT2
   Ute Becker             : Parallelization
   Giovanni Bistoni       : ED, misc. LED, open-shell LED, HFLD
   Martin Brehm           : Molecular dynamics
   Dmytro Bykov           : SCF Hessian
   Vijay G. Chilkuri      : MRCI spin determinant printing, contributions to CSF-ICE
   Dipayan Datta          : RHF DLPNO-CCSD density
   Achintya Kumar Dutta   : EOM-CC, STEOM-CC
   Dmitry Ganyushin       : Spin-Orbit,Spin-Spin,Magnetic field MRCI
   Miquel Garcia          : C-PCM Hessian, Gaussian charge scheme
   Yang Guo               : DLPNO-NEVPT2, CIM, IAO-localization
   Andreas Hansen         : Spin unrestricted coupled pair/coupled cluster methods
   Benjamin Helmich-Paris : CASSCF linear response (MC-RPA)
   Lee Huntington         : MR-EOM, pCC
   Robert Izsak           : Overlap fitted RIJCOSX, COSX-SCS-MP3, EOM
   Christian Kollmar      : KDIIS, OOCD, Brueckner-CCSD(T), CCSD density
   Simone Kossmann        : Meta GGA functionals, TD-DFT gradient, OOMP2, MP2 Hessian
   Martin Krupicka        : AUTO-CI
   Lucas Lang             : DCDCAS
   Dagmar Lenk            : GEPOL surface, SMD
   Dimitrios Liakos       : Extrapolation schemes; Compound Job, initial MDCI parallelization
   Dimitrios Manganas     : Further ROCIS development; embedding schemes
   Dimitrios Pantazis     : SARC Basis sets
   Taras Petrenko         : DFT Hessian,TD-DFT gradient, ASA, ECA, R-Raman, ABS, FL, XAS/XES, NRVS
   Peter Pinski           : DLPNO-MP2, DLPNO-MP2 Gradient
   Christoph Reimann      : Effective Core Potentials
   Marius Retegan         : Local ZFS, SOC
   Christoph Riplinger    : Optimizer, TS searches, QM/MM, DLPNO-CCSD(T), (RO)-DLPNO pert. Triples
   Tobias Risthaus        : Range-separated hybrids, TD-DFT gradient, RPA, STAB
   Michael Roemelt        : Original ROCIS implementation
   Masaaki Saitow         : Open-shell DLPNO-CCSD energy and density
   Barbara Sandhoefer     : DKH picture change effects
   Avijit Sen             : IP-ROCIS
   Kantharuban Sivalingam : CASSCF convergence, NEVPT2, FIC-MRCI
   Bernardo de Souza      : ESD, SOC TD-DFT
   Georgi Stoychev        : AutoAux, RI-MP2 NMR
   Willem Van den Heuvel  : Paramagnetic NMR
   Boris Wezisla          : Elementary symmetry handling
   Frank Wennmohs         : Technical directorship


 We gratefully acknowledge several colleagues who have allowed us to
 interface, adapt or use parts of their codes:
   Stefan Grimme, W. Hujo, H. Kruse,             : VdW corrections, initial TS optimization,
                  C. Bannwarth                     DFT functionals, gCP, sTDA/sTD-DF
   Ed Valeev, F. Pavosevic, A. Kumar             : LibInt (2-el integral package), F12 methods
   Garnet Chan, S. Sharma, J. Yang, R. Olivares  : DMRG
   Ulf Ekstrom                                   : XCFun DFT Library
   Mihaly Kallay                                 : mrcc  (arbitrary order and MRCC methods)
   Andreas Klamt, Michael Diedenhofen            : otool_cosmo (COSMO solvation model)
   Jiri Pittner, Ondrej Demel                    : Mk-CCSD
   Frank Weinhold                                : gennbo (NPA and NBO analysis)
   Christopher J. Cramer and Donald G. Truhlar   : smd solvation model
   Lars Goerigk                                  : TD-DFT with DH, B97 family of functionals
   V. Asgeirsson, H. Jonsson                     : NEB implementation
   FAccTs GmbH                                   : IRC, NEB, NEB-TS, Multilevel, MM, QM/MM, CI optimization
   S Lehtola, MJT Oliveira, MAL Marques          : LibXC Library


 Your calculation uses the libint2 library for the computation of 2-el integrals
 For citations please refer to: http://libint.valeyev.net

 Your ORCA version has been built with support for libXC version: 4.2.3
 For citations please refer to: https://tddft.org/programs/libxc/

 This ORCA versions uses:
   CBLAS   interface :  Fast vector & matrix operations
   LAPACKE interface :  Fast linear algebra routines
   SCALAPACK package :  Parallel linear algebra routines




***************************************
The coordinates will be read from file: nitrogen_monoxide_B3LYP_cc-pVDZ_OPT.xyz
***************************************


----- Orbital basis set information -----
Your calculation utilizes the basis: cc-pVTZ 
       H, B-Ne : Obtained from the ccRepo (grant-hill.group.shef.ac.uk/ccrepo) Feb. 2017
                 T. H. Dunning, Jr., J. Chem. Phys. 90, 1007 (1989)
            He : Obtained from the ccRepo (grant-hill.group.shef.ac.uk/ccrepo) Feb. 2017
                 D. E. Woon, T. H. Dunning, Jr., J. Chem. Phys. 100, 2975 (1994)
  Li-Be, Na-Mg : Obtained from the ccRepo (grant-hill.group.shef.ac.uk/ccrepo) Feb. 2017
                 B. P. Prascher, D. E. Woon, K. A. Peterson, T. H. Dunning, Jr., A. K. Wilson, Theor. Chem. Acc. 128, 69 (2011)
         Al-Ar : Obtained from the ccRepo (grant-hill.group.shef.ac.uk/ccrepo) Feb. 2017
                 D. E. Woon, T. H. Dunning, Jr., J. Chem. Phys. 98, 1358 (1993)
            Ca : Obtained from the Peterson Research Group Website (tyr0.chem.wsu.edu/~kipeters) Feb. 2017
                 J. Koput, K. A. Peterson, J. Phys. Chem. 106, 9595 (2002)
         Sc-Zn : Obtained from the ccRepo (grant-hill.group.shef.ac.uk/ccrepo) Feb. 2017
                 N. B. Balabanov, K. A. Peterson, J. Chem. Phys. 123, 064107 (2005)
                 N. B. Balabanov, K. A. Peterson, J. Chem. Phys. 125, 074110 (2006)
         Ga-Kr : Obtained from the ccRepo (grant-hill.group.shef.ac.uk/ccrepo) Feb. 2017
                 A. K. Wilson, D. E. Woon, K. A. Peterson, T. H. Dunning, Jr., J. Chem. Phys. 110, 7667 (1999)
             Y : Obtained from the ccRepo (grant-hill.group.shef.ac.uk/ccrepo) Feb. 2017
                 K. A. Peterson, D. Figgen, M. Dolg, H. Stoll, J. Chem. Phys. 126, 124101 (2007)
        Ag, Au : Obtained from the Peterson Research Group Website (tyr0.chem.wsu.edu/~kipeters) Feb. 2017
                 K. A. Peterson, C. Puzzarini, Theor. Chem. Acc. 114, 283 (2005)

================================================================================
                                        WARNINGS
                       Please study these warnings very carefully!
================================================================================


WARNING: your system is open-shell and RHF/RKS was chosen
  ===> : WILL SWITCH to UHF/UKS


WARNING: Geometry Optimization
  ===> : Switching off AutoStart
         For restart on a previous wavefunction, please use MOREAD

INFO   : the flag for use of LIBINT has been found!

================================================================================
                                       INPUT FILE
================================================================================
NAME = nitrogen_monoxide_B3LYP_cc-pVTZ_OPT.inp
|  1> # nitrogen_monoxide OPT with B3LYP/cc-pVTZ
|  2> 
|  3> ! B3LYP cc-pVTZ TightSCF Opt PAL4
|  4> 
|  5> * xyzfile 0 2 nitrogen_monoxide_B3LYP_cc-pVDZ_OPT.xyz
|  6> 
|  7> 
|  8>                          ****END OF INPUT****
================================================================================

                       *****************************
                       * Geometry Optimization Run *
                       *****************************

Geometry optimization settings:
Update method            Update   .... BFGS
Choice of coordinates    CoordSys .... Z-matrix Internals
Initial Hessian          InHess   .... Almoef's Model

Convergence Tolerances:
Energy Change            TolE     ....  5.0000e-06 Eh
Max. Gradient            TolMAXG  ....  3.0000e-04 Eh/bohr
RMS Gradient             TolRMSG  ....  1.0000e-04 Eh/bohr
Max. Displacement        TolMAXD  ....  4.0000e-03 bohr
RMS Displacement         TolRMSD  ....  2.0000e-03 bohr
Strict Convergence                ....  False
------------------------------------------------------------------------------
                        ORCA OPTIMIZATION COORDINATE SETUP
------------------------------------------------------------------------------

The optimization will be done in new redundant internal coordinates
Making redundant internal coordinates   ...  (new redundants) done
Evaluating the initial hessian          ...  (Almloef) done
Evaluating the coordinates              ...  done
Calculating the B-matrix                .... done
Calculating the G-matrix                .... done
Diagonalizing the G-matrix              .... done
The first mode is                       ....    0
The number of degrees of freedom        ....    1

    -----------------------------------------------------------------
                    Redundant Internal Coordinates


    -----------------------------------------------------------------
         Definition                    Initial Value    Approx d2E/dq
    -----------------------------------------------------------------
      1. B(O   1,N   0)                  1.1542         1.191915   
    -----------------------------------------------------------------

Number of atoms                         .... 2
Number of degrees of freedom            .... 1

         *************************************************************
         *                GEOMETRY OPTIMIZATION CYCLE   1            *
         *************************************************************
---------------------------------
CARTESIAN COORDINATES (ANGSTROEM)
---------------------------------
  N    -27.890421   12.166670    0.000000
  O    -26.736239   12.166670    0.000000

----------------------------
CARTESIAN COORDINATES (A.U.)
----------------------------
  NO LB      ZA    FRAG     MASS         X           Y           Z
   0 N     7.0000    0    14.007  -52.705257   22.991674    0.000000
   1 O     8.0000    0    15.999  -50.524170   22.991674    0.000000

--------------------------------
INTERNAL COORDINATES (ANGSTROEM)
--------------------------------
 N      0   0   0     0.000000000000     0.00000000     0.00000000
 O      1   0   0     1.154181804487     0.00000000     0.00000000

---------------------------
INTERNAL COORDINATES (A.U.)
---------------------------
 N      0   0   0     0.000000000000     0.00000000     0.00000000
 O      1   0   0     2.181087519235     0.00000000     0.00000000

---------------------
BASIS SET INFORMATION
---------------------
There are 2 groups of distinct atoms

 Group   1 Type N   : 18s5p2d1f contracted to 4s3p2d1f pattern {8811/311/11/1}
 Group   2 Type O   : 18s5p2d1f contracted to 4s3p2d1f pattern {8811/311/11/1}

Atom   0N    basis set group =>   1
Atom   1O    basis set group =>   2


           ************************************************************
           *        Program running with 4 parallel MPI-processes     *
           *              working on a common directory               *
           ************************************************************
------------------------------------------------------------------------------
                           ORCA GTO INTEGRAL CALCULATION
------------------------------------------------------------------------------

                         BASIS SET STATISTICS AND STARTUP INFO

 # of primitive gaussian shells          ...   52
 # of primitive gaussian functions       ...  100
 # of contracted shells                  ...   20
 # of contracted basis functions         ...   60
 Highest angular momentum                ...    3
 Maximum contraction depth               ...    8
 Integral package used                   ... LIBINT
 Integral threshhold            Thresh   ...  2.500e-11
 Primitive cut-off              TCut     ...  2.500e-12


------------------------------ INTEGRAL EVALUATION ----------------------------


 * One electron integrals 
 Pre-screening matrix                    ... done
 Shell pair data                         ... done (   0.000 sec)



           ************************************************************
           *        Program running with 4 parallel MPI-processes     *
           *              working on a common directory               *
           ************************************************************
-------------------------------------------------------------------------------
                                 ORCA SCF
-------------------------------------------------------------------------------

------------
SCF SETTINGS
------------
Hamiltonian:
 Density Functional     Method          .... DFT(GTOs)
 Exchange Functional    Exchange        .... B88
   X-Alpha parameter    XAlpha          ....  0.666667
   Becke's b parameter  XBeta           ....  0.004200
 Correlation Functional Correlation     .... LYP
 LDA part of GGA corr.  LDAOpt          .... VWN-5
 Gradients option       PostSCFGGA      .... off
 Hybrid DFT is turned on
   Fraction HF Exchange ScalHFX         ....  0.200000
   Scaling of DF-GGA-X  ScalDFX         ....  0.720000
   Scaling of DF-GGA-C  ScalDFC         ....  0.810000
   Scaling of DF-LDA-C  ScalLDAC        ....  1.000000
   Perturbative correction              ....  0.000000
   Density functional embedding theory  .... OFF
   NL short-range parameter             ....  4.800000


General Settings:
 Integral files         IntName         .... nitrogen_monoxide_B3LYP_cc-pVTZ_OPT
 Hartree-Fock type      HFTyp           .... UHF
 Total Charge           Charge          ....    0
 Multiplicity           Mult            ....    2
 Number of Electrons    NEL             ....   15
 Basis Dimension        Dim             ....   60
 Nuclear Repulsion      ENuc            ....     25.6752649796 Eh

Convergence Acceleration:
 DIIS                   CNVDIIS         .... on
   Start iteration      DIISMaxIt       ....    12
   Startup error        DIISStart       ....  0.200000
   # of expansion vecs  DIISMaxEq       ....     5
   Bias factor          DIISBfac        ....   1.050
   Max. coefficient     DIISMaxC        ....  10.000
 Newton-Raphson         CNVNR           .... off
 SOSCF                  CNVSOSCF        .... off
 Level Shifting         CNVShift        .... on
   Level shift para.    LevelShift      ....    0.2500
   Turn off err/grad.   ShiftErr        ....    0.0010
 Zerner damping         CNVZerner       .... off
 Static damping         CNVDamp         .... on
   Fraction old density DampFac         ....    0.7000
   Max. Damping (<1)    DampMax         ....    0.9800
   Min. Damping (>=0)   DampMin         ....    0.0000
   Turn off err/grad.   DampErr         ....    0.1000
 Fernandez-Rico         CNVRico         .... off

SCF Procedure:
 Maximum # iterations   MaxIter         ....   125
 SCF integral mode      SCFMode         .... Direct
   Integral package                     .... LIBINT
 Reset frequency        DirectResetFreq ....    20
 Integral Threshold     Thresh          ....  2.500e-11 Eh
 Primitive CutOff       TCut            ....  2.500e-12 Eh

Convergence Tolerance:
 Convergence Check Mode ConvCheckMode   .... Total+1el-Energy
 Convergence forced     ConvForced      .... 0
 Energy Change          TolE            ....  1.000e-08 Eh
 1-El. energy change                    ....  1.000e-05 Eh
 DIIS Error             TolErr          ....  5.000e-07


Diagonalization of the overlap matrix:
Smallest eigenvalue                        ... 2.973e-03
Time for diagonalization                   ...    0.001 sec
Threshold for overlap eigenvalues          ... 1.000e-08
Number of eigenvalues below threshold      ... 0
Time for construction of square roots      ...    0.000 sec
Total time needed                          ...    0.001 sec

-------------------
DFT GRID GENERATION
-------------------

General Integration Accuracy     IntAcc      ...  4.340
Radial Grid Type                 RadialGrid  ... Gauss-Chebyshev
Angular Grid (max. acc.)         AngularGrid ... Lebedev-110
Angular grid pruning method      GridPruning ... 3 (G Style)
Weight generation scheme         WeightScheme... Becke
Basis function cutoff            BFCut       ...    1.0000e-11
Integration weight cutoff        WCut        ...    1.0000e-14
Grids for H and He will be reduced by one unit

# of grid points (after initial pruning)     ...   3418 (   0.0 sec)
# of grid points (after weights+screening)   ...   3392 (   0.0 sec)
nearest neighbour list constructed           ...    0.0 sec
Grid point re-assignment to atoms done       ...    0.0 sec
Grid point division into batches done        ...    0.0 sec
Reduced shell lists constructed in    0.0 sec

Total number of grid points                  ...     3392
Total number of batches                      ...       54
Average number of points per batch           ...       62
Average number of grid points per atom       ...     1696
Average number of shells per batch           ...    16.00 (80.00%)
Average number of basis functions per batch  ...    46.67 (77.78%)
Average number of large shells per batch     ...    13.53 (84.58%)
Average number of large basis fcns per batch ...    39.80 (85.29%)
Maximum spatial batch extension              ...  13.73, 19.31, 25.65 au
Average spatial batch extension              ...   2.27,  2.47,  2.86 au

Time for grid setup =    0.006 sec

------------------------------
INITIAL GUESS: MODEL POTENTIAL
------------------------------
Loading Hartree-Fock densities                     ... done
Calculating cut-offs                               ... done
Setting up the integral package                    ... done
Initializing the effective Hamiltonian             ... done
Starting the Coulomb interaction                   ... done (   0.0 sec)
Reading the grid                                   ... done
Mapping shells                                     ... done
Starting the XC term evaluation                    ... done (   0.0 sec)
  promolecular density results
     # of electrons  =     15.000005645
     EX              =    -14.679669831
     EC              =     -0.530525358
     EX+EC           =    -15.210195189
Transforming the Hamiltonian                       ... done (   0.0 sec)
Diagonalizing the Hamiltonian                      ... done (   0.0 sec)
Back transforming the eigenvectors                 ... done (   0.0 sec)
Now organizing SCF variables                       ... done
                      ------------------
                      INITIAL GUESS DONE (   0.1 sec)
                      ------------------
--------------
SCF ITERATIONS
--------------
ITER       Energy         Delta-E        Max-DP      RMS-DP      [F,P]     Damp
               ***  Starting incremental Fock matrix formation  ***
  0   -129.8719402865   0.000000000000 0.01109323  0.00039393  0.1046797 0.7000
  1   -129.8768573059  -0.004917019374 0.01157136  0.00028532  0.0483524 0.7000
                               ***Turning on DIIS***
  2   -129.8790814773  -0.002224171350 0.02911551  0.00062948  0.0212087 0.0000
  3   -129.8839894674  -0.004907990160 0.00778039  0.00023865  0.0127290 0.0000
  4   -129.8842565678  -0.000267100402 0.00250945  0.00007385  0.0067980 0.0000
  5   -129.8843031568  -0.000046588939 0.00070161  0.00002532  0.0017164 0.0000
  6   -129.8843129922  -0.000009835488 0.00082144  0.00002265  0.0007690 0.0000
  7   -129.8843170562  -0.000004063950 0.00031738  0.00001233  0.0002339 0.0000
  8   -129.8843180822  -0.000001025971 0.00011718  0.00000431  0.0000500 0.0000
  9   -129.8843182561  -0.000000173896 0.00005821  0.00000214  0.0000126 0.0000
 10   -129.8843183003  -0.000000044191 0.00002270  0.00000081  0.0000051 0.0000
                 **** Energy Check signals convergence ****

               *****************************************************
               *                     SUCCESS                       *
               *           SCF CONVERGED AFTER  11 CYCLES          *
               *****************************************************

Setting up the final grid:

General Integration Accuracy     IntAcc      ...  4.670
Radial Grid Type                 RadialGrid  ... Gauss-Chebyshev
Angular Grid (max. acc.)         AngularGrid ... Lebedev-302
Angular grid pruning method      GridPruning ... 3 (G Style)
Weight generation scheme         WeightScheme... Becke
Basis function cutoff            BFCut       ...    1.0000e-11
Integration weight cutoff        WCut        ...    1.0000e-14
Grids for H and He will be reduced by one unit

# of grid points (after initial pruning)     ...  12424 (   0.0 sec)
# of grid points (after weights+screening)   ...  12394 (   0.0 sec)
nearest neighbour list constructed           ...    0.0 sec
Grid point re-assignment to atoms done       ...    0.0 sec
Grid point division into batches done        ...    0.0 sec
Reduced shell lists constructed in    0.0 sec

Total number of grid points                  ...    12394
Total number of batches                      ...      195
Average number of points per batch           ...       63
Average number of grid points per atom       ...     6197
Average number of shells per batch           ...    12.62 (63.10%)
Average number of basis functions per batch  ...    36.66 (61.10%)
Average number of large shells per batch     ...    10.42 (82.57%)
Average number of large basis fcns per batch ...    29.66 (80.91%)
Maximum spatial batch extension              ...  12.78, 19.94, 19.94 au
Average spatial batch extension              ...   1.37,  1.64,  1.60 au

Final grid set up in    0.0 sec
Final integration                            ... done (   0.0 sec)
Change in XC energy                          ...     0.000009160
Integrated number of electrons               ...    15.000000741
Previous integrated no of electrons          ...    14.999997430

----------------
TOTAL SCF ENERGY
----------------

Total Energy       :         -129.88430915 Eh           -3534.33173 eV

Components:
Nuclear Repulsion  :           25.67526498 Eh             698.65948 eV
Electronic Energy  :         -155.55957413 Eh           -4232.99121 eV
One Electron Energy:         -227.84520832 Eh           -6199.98332 eV
Two Electron Energy:           72.28563419 Eh            1966.99211 eV

Virial components:
Potential Energy   :         -259.07837647 Eh           -7049.88103 eV
Kinetic Energy     :          129.19406732 Eh            3515.54930 eV
Virial Ratio       :            2.00534267


DFT components:
N(Alpha)           :        8.000000383365 electrons
N(Beta)            :        7.000000357308 electrons
N(Total)           :       15.000000740673 electrons
E(X)               :      -11.738745333457 Eh       
E(C)               :       -0.623123534179 Eh       
E(XC)              :      -12.361868867636 Eh       
DFET-embed. en.    :        0.000000000000 Eh       

---------------
SCF CONVERGENCE
---------------

  Last Energy change         ...   -8.9955e-09  Tolerance :   1.0000e-08
  Last MAX-Density change    ...    1.7020e-05  Tolerance :   1.0000e-07
  Last RMS-Density change    ...    6.4219e-07  Tolerance :   5.0000e-09
  Last DIIS Error            ...    3.4010e-06  Tolerance :   5.0000e-07

             **** THE GBW FILE WAS UPDATED (nitrogen_monoxide_B3LYP_cc-pVTZ_OPT.gbw) ****
             **** DENSITY FILE WAS UPDATED (nitrogen_monoxide_B3LYP_cc-pVTZ_OPT.scfp) ****
             **** ENERGY FILE WAS UPDATED (nitrogen_monoxide_B3LYP_cc-pVTZ_OPT.en.tmp) ****
----------------------
UHF SPIN CONTAMINATION
----------------------

Warning: in a DFT calculation there is little theoretical justification to 
         calculate <S**2> as in Hartree-Fock theory. We will do it anyways
         but you should keep in mind that the values have only limited relevance

Expectation value of <S**2>     :     0.753109
Ideal value S*(S+1) for S=0.5   :     0.750000
Deviation                       :     0.003109

             **** THE GBW FILE WAS UPDATED (nitrogen_monoxide_B3LYP_cc-pVTZ_OPT.gbw) ****
             **** DENSITY FILE WAS UPDATED (nitrogen_monoxide_B3LYP_cc-pVTZ_OPT.scfp) ****
----------------
ORBITAL ENERGIES
----------------
                 SPIN UP ORBITALS
  NO   OCC          E(Eh)            E(eV) 
   0   1.0000     -19.266503      -524.2682 
   1   1.0000     -14.455427      -393.3522 
   2   1.0000      -1.244062       -33.8526 
   3   1.0000      -0.689729       -18.7685 
   4   1.0000      -0.536582       -14.6011 
   5   1.0000      -0.509025       -13.8513 
   6   1.0000      -0.486056       -13.2263 
   7   1.0000      -0.218823        -5.9545 
   8   0.0000      -0.107422        -2.9231 
   9   0.0000       0.237533         6.4636 
  10   0.0000       0.414019        11.2660 
  11   0.0000       0.420514        11.4428 
  12   0.0000       0.450260        12.2522 
  13   0.0000       0.509240        13.8571 
  14   0.0000       0.571825        15.5601 
  15   0.0000       0.596982        16.2447 
  16   0.0000       0.604172        16.4404 
  17   0.0000       0.924745        25.1636 
  18   0.0000       0.926528        25.2121 
  19   0.0000       1.124015        30.5860 
  20   0.0000       1.124718        30.6051 
  21   0.0000       1.175999        32.0006 
  22   0.0000       1.519556        41.3492 
  23   0.0000       1.520690        41.3801 
  24   0.0000       1.629348        44.3368 
  25   0.0000       1.994459        54.2720 
  26   0.0000       1.996448        54.3261 
  27   0.0000       2.202924        59.9446 
  28   0.0000       2.807152        76.3865 
  29   0.0000       2.823942        76.8434 
  30   0.0000       3.058450        83.2247 
  31   0.0000       3.524034        95.8938 
  32   0.0000       3.532392        96.1213 
  33   0.0000       3.755921       102.2038 
  34   0.0000       3.757659       102.2511 
  35   0.0000       3.779713       102.8512 
  36   0.0000       3.780312       102.8675 
  37   0.0000       3.893939       105.9595 
  38   0.0000       4.046054       110.0987 
  39   0.0000       4.047072       110.1264 
  40   0.0000       4.265346       116.0660 
  41   0.0000       4.352822       118.4463 
  42   0.0000       4.358059       118.5888 
  43   0.0000       4.721392       128.4756 
  44   0.0000       4.725549       128.5887 
  45   0.0000       4.768569       129.7594 
  46   0.0000       5.049147       137.3943 
  47   0.0000       5.049397       137.4011 
  48   0.0000       5.525089       150.3453 
  49   0.0000       5.526345       150.3795 
  50   0.0000       6.149550       167.3378 
  51   0.0000       6.150138       167.3538 
  52   0.0000       6.249058       170.0455 
  53   0.0000       6.372066       173.3927 
  54   0.0000       6.375726       173.4923 
  55   0.0000       6.900637       187.7759 
  56   0.0000       6.902263       187.8201 
  57   0.0000       6.932420       188.6407 
  58   0.0000       7.117893       193.6877 
  59   0.0000      13.170213       358.3797 

                 SPIN DOWN ORBITALS
  NO   OCC          E(Eh)            E(eV) 
   0   1.0000     -19.255913      -523.9800 
   1   1.0000     -14.439556      -392.9203 
   2   1.0000      -1.222860       -33.2757 
   3   1.0000      -0.652907       -17.7665 
   4   1.0000      -0.499391       -13.5891 
   5   1.0000      -0.463127       -12.6023 
   6   1.0000      -0.461968       -12.5708 
   7   0.0000      -0.091763        -2.4970 
   8   0.0000      -0.049811        -1.3554 
   9   0.0000       0.244776         6.6607 
  10   0.0000       0.426474        11.6049 
  11   0.0000       0.448953        12.2166 
  12   0.0000       0.465712        12.6727 
  13   0.0000       0.521420        14.1886 
  14   0.0000       0.583514        15.8782 
  15   0.0000       0.608037        16.5455 
  16   0.0000       0.625654        17.0249 
  17   0.0000       0.951470        25.8908 
  18   0.0000       0.951503        25.8917 
  19   0.0000       1.127376        30.6775 
  20   0.0000       1.155139        31.4329 
  21   0.0000       1.185173        32.2502 
  22   0.0000       1.542608        41.9765 
  23   0.0000       1.542876        41.9838 
  24   0.0000       1.643519        44.7224 
  25   0.0000       1.999647        54.4132 
  26   0.0000       2.023242        55.0552 
  27   0.0000       2.215744        60.2935 
  28   0.0000       2.837161        77.2031 
  29   0.0000       2.877286        78.2949 
  30   0.0000       3.072503        83.6070 
  31   0.0000       3.539041        96.3022 
  32   0.0000       3.570024        97.1453 
  33   0.0000       3.779897       102.8562 
  34   0.0000       3.779948       102.8576 
  35   0.0000       3.825081       104.0857 
  36   0.0000       3.825105       104.0864 
  37   0.0000       3.911869       106.4474 
  38   0.0000       4.052231       110.2668 
  39   0.0000       4.084184       111.1363 
  40   0.0000       4.283166       116.5509 
  41   0.0000       4.419573       120.2627 
  42   0.0000       4.420395       120.2851 
  43   0.0000       4.730940       128.7354 
  44   0.0000       4.765891       129.6865 
  45   0.0000       4.785605       130.2229 
  46   0.0000       5.074092       138.0731 
  47   0.0000       5.074116       138.0737 
  48   0.0000       5.545131       150.8907 
  49   0.0000       5.545389       150.8977 
  50   0.0000       6.186092       168.3321 
  51   0.0000       6.187763       168.3776 
  52   0.0000       6.261929       170.3957 
  53   0.0000       6.379814       173.6036 
  54   0.0000       6.409693       174.4166 
  55   0.0000       6.904063       187.8691 
  56   0.0000       6.932626       188.6463 
  57   0.0000       6.949413       189.1031 
  58   0.0000       7.133001       194.0988 
  59   0.0000      13.189495       358.9044 

                    ********************************
                    * MULLIKEN POPULATION ANALYSIS *
                    ********************************

--------------------------------------------
MULLIKEN ATOMIC CHARGES AND SPIN POPULATIONS
--------------------------------------------
   0 N :    0.003661    0.691397
   1 O :   -0.003661    0.308603
Sum of atomic charges         :   -0.0000000
Sum of atomic spin populations:    1.0000000

-----------------------------------------------------
MULLIKEN REDUCED ORBITAL CHARGES AND SPIN POPULATIONS
-----------------------------------------------------
CHARGE
  0 N s       :     3.909279  s :     3.909279
      pz      :     0.696607  p :     2.995798
      px      :     0.979118
      py      :     1.320072
      dz2     :     0.006420  d :     0.083172
      dxz     :     0.028505
      dyz     :     0.000000
      dx2y2   :     0.019424
      dxy     :     0.028823
      f0      :     0.000680  f :     0.008090
      f+1     :     0.000738
      f-1     :     0.000061
      f+2     :     0.001724
      f-2     :     0.000000
      f+3     :     0.001848
      f-3     :     0.003039
  1 O s       :     3.767888  s :     3.767888
      pz      :     1.256910  p :     4.182844
      px      :     1.296446
      py      :     1.629489
      dz2     :     0.004150  d :     0.048815
      dxz     :     0.014533
      dyz     :     0.000000
      dx2y2   :     0.013017
      dxy     :     0.017115
      f0      :     0.000289  f :     0.004114
      f+1     :     0.000511
      f-1     :     0.000038
      f+2     :     0.000753
      f-2     :     0.000000
      f+3     :     0.001160
      f-3     :     0.001362

SPIN
  0 N s       :     0.007300  s :     0.007300
      pz      :     0.014772  p :     0.685789
      px      :    -0.005122
      py      :     0.676138
      dz2     :    -0.000703  d :    -0.001093
      dxz     :    -0.000599
      dyz     :    -0.000000
      dx2y2   :     0.001094
      dxy     :    -0.000884
      f0      :     0.000191  f :    -0.000598
      f+1     :     0.000034
      f-1     :     0.000102
      f+2     :    -0.000427
      f-2     :    -0.000000
      f+3     :    -0.000370
      f-3     :    -0.000128
  1 O s       :     0.008391  s :     0.008391
      pz      :    -0.013701  p :     0.297855
      px      :    -0.010620
      py      :     0.322176
      dz2     :    -0.000329  d :     0.002317
      dxz     :    -0.000191
      dyz     :     0.000000
      dx2y2   :     0.000417
      dxy     :     0.002421
      f0      :     0.000070  f :     0.000040
      f+1     :     0.000017
      f-1     :     0.000049
      f+2     :    -0.000114
      f-2     :     0.000000
      f+3     :    -0.000109
      f-3     :     0.000127


                     *******************************
                     * LOEWDIN POPULATION ANALYSIS *
                     *******************************

-------------------------------------------
LOEWDIN ATOMIC CHARGES AND SPIN POPULATIONS
-------------------------------------------
   0 N :   -0.130544    0.664294
   1 O :    0.130544    0.335706

----------------------------------------------------
LOEWDIN REDUCED ORBITAL CHARGES AND SPIN POPULATIONS
----------------------------------------------------
CHARGE
  0 N s       :     3.555548  s :     3.555548
      pz      :     0.713366  p :     3.266615
      px      :     1.280022
      py      :     1.273226
      dz2     :     0.027407  d :     0.264077
      dxz     :     0.055761
      dyz     :     0.000000
      dx2y2   :     0.082243
      dxy     :     0.098666
      f0      :     0.003579  f :     0.044304
      f+1     :     0.005444
      f-1     :     0.001072
      f+2     :     0.006469
      f-2     :     0.000000
      f+3     :     0.009762
      f-3     :     0.017978
  1 O s       :     3.502481  s :     3.502481
      pz      :     1.202470  p :     4.224813
      px      :     1.475672
      py      :     1.546671
      dz2     :     0.013965  d :     0.129085
      dxz     :     0.016649
      dyz     :     0.000000
      dx2y2   :     0.042636
      dxy     :     0.055835
      f0      :     0.000572  f :     0.013078
      f+1     :     0.001689
      f-1     :     0.000379
      f+2     :     0.001135
      f-2     :     0.000000
      f+3     :     0.003130
      f-3     :     0.006172

SPIN
  0 N s       :     0.006077  s :     0.006077
      pz      :     0.013019  p :     0.611620
      px      :    -0.006765
      py      :     0.605366
      dz2     :    -0.000584  d :     0.039289
      dxz     :    -0.001326
      dyz     :    -0.000000
      dx2y2   :     0.002457
      dxy     :     0.038742
      f0      :     0.000103  f :     0.007308
      f+1     :     0.000103
      f-1     :     0.000575
      f+2     :    -0.000459
      f-2     :    -0.000000
      f+3     :    -0.000316
      f-3     :     0.007302
  1 O s       :     0.003726  s :     0.003726
      pz      :    -0.011637  p :     0.284567
      px      :    -0.006157
      py      :     0.302362
      dz2     :     0.000108  d :     0.042414
      dxz     :     0.000271
      dyz     :     0.000000
      dx2y2   :     0.001345
      dxy     :     0.040690
      f0      :     0.000070  f :     0.004998
      f+1     :     0.000071
      f-1     :     0.000335
      f+2     :    -0.000040
      f-2     :     0.000000
      f+3     :    -0.000065
      f-3     :     0.004628


                      *****************************
                      * MAYER POPULATION ANALYSIS *
                      *****************************

  NA   - Mulliken gross atomic population
  ZA   - Total nuclear charge
  QA   - Mulliken gross atomic charge
  VA   - Mayer's total valence
  BVA  - Mayer's bonded valence
  FA   - Mayer's free valence

  ATOM       NA         ZA         QA         VA         BVA        FA
  0 N      6.9963     7.0000     0.0037     2.7176     2.2408     0.4768
  1 O      8.0037     8.0000    -0.0037     2.3605     2.2408     0.1198

  Mayer bond orders larger than 0.100000
B(  0-N ,  1-O ) :   2.2408 

-------
TIMINGS
-------

Total SCF time: 0 days 0 hours 0 min 1 sec 

Total time                  ....       1.904 sec
Sum of individual times     ....       1.761 sec  ( 92.5%)

Fock matrix formation       ....       1.619 sec  ( 85.0%)
  XC integration            ....       0.085 sec  (  5.2% of F)
    Basis function eval.    ....       0.018 sec  ( 21.0% of XC)
    Density eval.           ....       0.015 sec  ( 18.0% of XC)
    XC-Functional eval.     ....       0.010 sec  ( 11.6% of XC)
    XC-Potential eval.      ....       0.029 sec  ( 34.6% of XC)
Diagonalization             ....       0.010 sec  (  0.5%)
Density matrix formation    ....       0.001 sec  (  0.0%)
Population analysis         ....       0.001 sec  (  0.1%)
Initial guess               ....       0.072 sec  (  3.8%)
Orbital Transformation      ....       0.000 sec  (  0.0%)
Orbital Orthonormalization  ....       0.000 sec  (  0.0%)
DIIS solution               ....       0.003 sec  (  0.2%)
Grid generation             ....       0.056 sec  (  2.9%)

-------------------------   --------------------
FINAL SINGLE POINT ENERGY      -129.884309149650
-------------------------   --------------------



           ************************************************************
           *        Program running with 4 parallel MPI-processes     *
           *              working on a common directory               *
           ************************************************************
------------------------------------------------------------------------------
                         ORCA SCF GRADIENT CALCULATION
------------------------------------------------------------------------------

Gradient of the Kohn-Sham DFT energy:
Kohn-Sham wavefunction type      ... UKS
Hartree-Fock exchange scaling    ...    0.200
Number of operators              ...    2
Number of atoms                  ...    2
Basis set dimensions             ...   60
Integral neglect threshold       ... 2.5e-11
Integral primitive cutoff        ... 2.5e-12

Nuclear repulsion gradient       ... done
One Electron Gradient            ... done
Pre-screening matrix             ... done
Starting the two electron gradient:
Two electron gradient done
Exchange-correlation gradient    ... done

------------------
CARTESIAN GRADIENT
------------------

   1   N   :   -0.016056830    0.000000000    0.000000000
   2   O   :    0.016056830   -0.000000000   -0.000000000

Difference to translation invariance:
           :    0.0000000000   -0.0000000000   -0.0000000000

Norm of the cartesian gradient     ...    0.0227077873
RMS gradient                       ...    0.0092704153
MAX gradient                       ...    0.0160568304

-------
TIMINGS
-------

Total SCF gradient time            ...        0.319 sec

One electron gradient       ....       0.001 sec  (  0.2%)
Prescreening matrices       ....       0.016 sec  (  5.0%)
Two electron gradient       ....       0.168 sec  ( 52.7%)
XC gradient                 ....       0.041 sec  ( 12.8%)
------------------------------------------------------------------------------
                         ORCA GEOMETRY RELAXATION STEP
------------------------------------------------------------------------------

Reading the OPT-File                    .... done
Getting information on internals        .... done
Copying old internal coords+grads       .... done
Making the new internal coordinates     .... (new redundants).... done
Validating the new internal coordinates .... (new redundants).... done
Calculating the B-matrix                .... done
Calculating the G,G- and P matrices     .... done
Transforming gradient to internals      .... done
Projecting the internal gradient        .... done
Number of atoms                         ....   2
Number of internal coordinates          ....   1
Current Energy                          ....  -129.884309150 Eh
Current gradient norm                   ....     0.022707787 Eh/bohr
Maximum allowed component of the step   ....  0.300
Current trust radius                    ....  0.300
Evaluating the initial hessian          ....  (Almloef) done
Projecting the Hessian                  .... done
Forming the augmented Hessian           .... done
Diagonalizing the augmented Hessian     .... done
Last element of RFO vector              ....  0.999909305
Lowest eigenvalues of augmented Hessian:
 -0.000216270
Length of the computed step             ....  0.013469013
The final length of the internal step   ....  0.013469013
Converting the step to cartesian space:
 Initial RMS(Int)=    0.0134690127
Transforming coordinates:
 Iter   0:  RMS(Cart)=    0.0038881690 RMS(Int)=    0.0134690127
 Iter   1:  RMS(Cart)=    0.0000000000 RMS(Int)=    0.0000000000
done
Storing new coordinates                 .... done

                                .--------------------.
          ----------------------|Geometry convergence|-------------------------
          Item                value                   Tolerance       Converged
          ---------------------------------------------------------------------
          RMS gradient        0.0160568304            0.0001000000      NO
          MAX gradient        0.0160568304            0.0003000000      NO
          RMS step            0.0134690127            0.0020000000      NO
          MAX step            0.0134690127            0.0040000000      NO
          ........................................................
          Max(Bonds)      0.0071      Max(Angles)    0.00
          Max(Dihed)        0.00      Max(Improp)    0.00
          ---------------------------------------------------------------------

The optimization has not yet converged - more geometry cycles are needed


    ---------------------------------------------------------------------------
                         Redundant Internal Coordinates
                            (Angstroem and degrees)

        Definition                    Value    dE/dq     Step     New-Value
    ----------------------------------------------------------------------------
     1. B(O   1,N   0)                1.1542  0.016057 -0.0071    1.1471   
    ----------------------------------------------------------------------------

         *************************************************************
         *                GEOMETRY OPTIMIZATION CYCLE   2            *
         *************************************************************
---------------------------------
CARTESIAN COORDINATES (ANGSTROEM)
---------------------------------
  N    -27.886857   12.166670    0.000000
  O    -26.739803   12.166670    0.000000

----------------------------
CARTESIAN COORDINATES (A.U.)
----------------------------
  NO LB      ZA    FRAG     MASS         X           Y           Z
   0 N     7.0000    0    14.007  -52.698523   22.991674    0.000000
   1 O     8.0000    0    15.999  -50.530904   22.991674    0.000000

--------------------------------
INTERNAL COORDINATES (ANGSTROEM)
--------------------------------
 N      0   0   0     0.000000000000     0.00000000     0.00000000
 O      1   0   0     1.147054309964     0.00000000     0.00000000

---------------------------
INTERNAL COORDINATES (A.U.)
---------------------------
 N      0   0   0     0.000000000000     0.00000000     0.00000000
 O      1   0   0     2.167618506566     0.00000000     0.00000000



           ************************************************************
           *        Program running with 4 parallel MPI-processes     *
           *              working on a common directory               *
           ************************************************************


           ************************************************************
           *        Program running with 4 parallel MPI-processes     *
           *              working on a common directory               *
           ************************************************************

Diagonalization of the overlap matrix:
Smallest eigenvalue                        ... 2.898e-03
Time for diagonalization                   ...    0.001 sec
Threshold for overlap eigenvalues          ... 1.000e-08
Number of eigenvalues below threshold      ... 0
Time for construction of square roots      ...    0.000 sec
Total time needed                          ...    0.002 sec

-------------------
DFT GRID GENERATION
-------------------

General Integration Accuracy     IntAcc      ...  4.340
Radial Grid Type                 RadialGrid  ... Gauss-Chebyshev
Angular Grid (max. acc.)         AngularGrid ... Lebedev-110
Angular grid pruning method      GridPruning ... 3 (G Style)
Weight generation scheme         WeightScheme... Becke
Basis function cutoff            BFCut       ...    1.0000e-11
Integration weight cutoff        WCut        ...    1.0000e-14
Grids for H and He will be reduced by one unit

# of grid points (after initial pruning)     ...   3418 (   0.0 sec)
# of grid points (after weights+screening)   ...   3392 (   0.0 sec)
nearest neighbour list constructed           ...    0.0 sec
Grid point re-assignment to atoms done       ...    0.0 sec
Grid point division into batches done        ...    0.0 sec
Reduced shell lists constructed in    0.0 sec

Total number of grid points                  ...     3392
Total number of batches                      ...       54
Average number of points per batch           ...       62
Average number of grid points per atom       ...     1696
Average number of shells per batch           ...    16.00 (80.00%)
Average number of basis functions per batch  ...    46.67 (77.78%)
Average number of large shells per batch     ...    13.53 (84.58%)
Average number of large basis fcns per batch ...    39.80 (85.29%)
Maximum spatial batch extension              ...  13.71, 19.31, 25.65 au
Average spatial batch extension              ...   2.26,  2.47,  2.86 au

Time for grid setup =    0.008 sec

--------------
SCF ITERATIONS
--------------
ITER       Energy         Delta-E        Max-DP      RMS-DP      [F,P]     Damp
               ***  Starting incremental Fock matrix formation  ***
  0   -129.8843923141   0.000000000000 0.00034602  0.00001889  0.0048824 0.7000
  1   -129.8844063608  -0.000014046697 0.00036827  0.00001717  0.0032150 0.7000
                               ***Turning on DIIS***
  2   -129.8844159826  -0.000009621844 0.00106843  0.00004642  0.0020942 0.0000
  3   -129.8844385876  -0.000022604919 0.00054312  0.00001557  0.0004021 0.0000
  4   -129.8844389377  -0.000000350159 0.00011592  0.00000387  0.0002828 0.0000
  5   -129.8844390614  -0.000000123669 0.00002444  0.00000117  0.0001012 0.0000
  6   -129.8844390629  -0.000000001544 0.00002508  0.00000081  0.0001013 0.0000
  7   -129.8844390733  -0.000000010369 0.00000575  0.00000020  0.0000062 0.0000
                 **** Energy Check signals convergence ****

               *****************************************************
               *                     SUCCESS                       *
               *           SCF CONVERGED AFTER   8 CYCLES          *
               *****************************************************

Setting up the final grid:

General Integration Accuracy     IntAcc      ...  4.670
Radial Grid Type                 RadialGrid  ... Gauss-Chebyshev
Angular Grid (max. acc.)         AngularGrid ... Lebedev-302
Angular grid pruning method      GridPruning ... 3 (G Style)
Weight generation scheme         WeightScheme... Becke
Basis function cutoff            BFCut       ...    1.0000e-11
Integration weight cutoff        WCut        ...    1.0000e-14
Grids for H and He will be reduced by one unit

# of grid points (after initial pruning)     ...  12424 (   0.0 sec)
# of grid points (after weights+screening)   ...  12394 (   0.0 sec)
nearest neighbour list constructed           ...    0.0 sec
Grid point re-assignment to atoms done       ...    0.0 sec
Grid point division into batches done        ...    0.0 sec
Reduced shell lists constructed in    0.0 sec

Total number of grid points                  ...    12394
Total number of batches                      ...      195
Average number of points per batch           ...       63
Average number of grid points per atom       ...     6197
Average number of shells per batch           ...    12.64 (63.20%)
Average number of basis functions per batch  ...    36.68 (61.13%)
Average number of large shells per batch     ...    10.42 (82.44%)
Average number of large basis fcns per batch ...    29.66 (80.86%)
Maximum spatial batch extension              ...  12.77, 19.94, 19.94 au
Average spatial batch extension              ...   1.37,  1.64,  1.60 au

Final grid set up in    0.1 sec
Final integration                            ... done (   0.0 sec)
Change in XC energy                          ...     0.000009751
Integrated number of electrons               ...    14.999999577
Previous integrated no of electrons          ...    14.999997117
Total Energy       :         -129.88442932 Eh           -3534.33500 eV
  Last Energy change         ...   -4.2166e-10  Tolerance :   1.0000e-08
  Last MAX-Density change    ...    2.8533e-06  Tolerance :   1.0000e-07
             **** THE GBW FILE WAS UPDATED (nitrogen_monoxide_B3LYP_cc-pVTZ_OPT.gbw) ****
             **** DENSITY FILE WAS UPDATED (nitrogen_monoxide_B3LYP_cc-pVTZ_OPT.scfp) ****
             **** ENERGY FILE WAS UPDATED (nitrogen_monoxide_B3LYP_cc-pVTZ_OPT.en.tmp) ****
----------------------
UHF SPIN CONTAMINATION
----------------------

Warning: in a DFT calculation there is little theoretical justification to 
         calculate <S**2> as in Hartree-Fock theory. We will do it anyways
         but you should keep in mind that the values have only limited relevance

Expectation value of <S**2>     :     0.753066
Ideal value S*(S+1) for S=0.5   :     0.750000
Deviation                       :     0.003066

             **** THE GBW FILE WAS UPDATED (nitrogen_monoxide_B3LYP_cc-pVTZ_OPT.gbw) ****
             **** DENSITY FILE WAS UPDATED (nitrogen_monoxide_B3LYP_cc-pVTZ_OPT.scfp) ****
Total SCF time: 0 days 0 hours 0 min 1 sec 

-------------------------   --------------------
FINAL SINGLE POINT ENERGY      -129.884429322325
-------------------------   --------------------



           ************************************************************
           *        Program running with 4 parallel MPI-processes     *
           *              working on a common directory               *
           ************************************************************
------------------------------------------------------------------------------
                         ORCA SCF GRADIENT CALCULATION
------------------------------------------------------------------------------

Gradient of the Kohn-Sham DFT energy:
Kohn-Sham wavefunction type      ... UKS
Hartree-Fock exchange scaling    ...    0.200
Number of operators              ...    2
Number of atoms                  ...    2
Basis set dimensions             ...   60
Integral neglect threshold       ... 2.5e-11
Integral primitive cutoff        ... 2.5e-12

Nuclear repulsion gradient       ... done
One Electron Gradient            ... done
Pre-screening matrix             ... done
Starting the two electron gradient:
Two electron gradient done
Exchange-correlation gradient    ... done

------------------
CARTESIAN GRADIENT
------------------

   1   N   :   -0.001652328    0.000000001    0.000000000
   2   O   :    0.001652328   -0.000000001   -0.000000000

Difference to translation invariance:
           :    0.0000000000   -0.0000000000   -0.0000000000

Norm of the cartesian gradient     ...    0.0023367447
RMS gradient                       ...    0.0009539720
MAX gradient                       ...    0.0016523280

-------
TIMINGS
-------

Total SCF gradient time            ...        0.307 sec

One electron gradient       ....       0.001 sec  (  0.3%)
Prescreening matrices       ....       0.016 sec  (  5.2%)
Two electron gradient       ....       0.151 sec  ( 49.3%)
XC gradient                 ....       0.042 sec  ( 13.6%)
------------------------------------------------------------------------------
                         ORCA GEOMETRY RELAXATION STEP
------------------------------------------------------------------------------

Reading the OPT-File                    .... done
Getting information on internals        .... done
Copying old internal coords+grads       .... done
Making the new internal coordinates     .... (new redundants).... done
Validating the new internal coordinates .... (new redundants).... done
Calculating the B-matrix                .... done
Calculating the G,G- and P matrices     .... done
Transforming gradient to internals      .... done
Projecting the internal gradient        .... done
Number of atoms                         ....   2
Number of internal coordinates          ....   1
Current Energy                          ....  -129.884429322 Eh
Current gradient norm                   ....     0.002336745 Eh/bohr
Maximum allowed component of the step   ....  0.300
Current trust radius                    ....  0.300
Updating the Hessian (BFGS)             .... done
Forming the augmented Hessian           .... done
Diagonalizing the augmented Hessian     .... done
Last element of RFO vector              ....  0.999998806
Lowest eigenvalues of augmented Hessian:
 -0.000002553
Length of the computed step             ....  0.001545015
The final length of the internal step   ....  0.001545015
Converting the step to cartesian space:
 Initial RMS(Int)=    0.0015450151
Transforming coordinates:
 Iter   0:  RMS(Cart)=    0.0004460074 RMS(Int)=    0.0015450151
 Iter   1:  RMS(Cart)=    0.0000000000 RMS(Int)=    0.0000000000
done
Storing new coordinates                 .... done

                                .--------------------.
          ----------------------|Geometry convergence|-------------------------
          Item                value                   Tolerance       Converged
          ---------------------------------------------------------------------
          Energy change      -0.0001201727            0.0000050000      NO
          RMS gradient        0.0016523280            0.0001000000      NO
          MAX gradient        0.0016523280            0.0003000000      NO
          RMS step            0.0015450151            0.0020000000      YES
          MAX step            0.0015450151            0.0040000000      YES
          ........................................................
          Max(Bonds)      0.0008      Max(Angles)    0.00
          Max(Dihed)        0.00      Max(Improp)    0.00
          ---------------------------------------------------------------------

The optimization has not yet converged - more geometry cycles are needed


    ---------------------------------------------------------------------------
                         Redundant Internal Coordinates
                            (Angstroem and degrees)

        Definition                    Value    dE/dq     Step     New-Value
    ----------------------------------------------------------------------------
     1. B(O   1,N   0)                1.1471  0.001652 -0.0008    1.1462   
    ----------------------------------------------------------------------------

         *************************************************************
         *                GEOMETRY OPTIMIZATION CYCLE   3            *
         *************************************************************
---------------------------------
CARTESIAN COORDINATES (ANGSTROEM)
---------------------------------
  N    -27.886448   12.166670    0.000000
  O    -26.740212   12.166670    0.000000

----------------------------
CARTESIAN COORDINATES (A.U.)
----------------------------
  NO LB      ZA    FRAG     MASS         X           Y           Z
   0 N     7.0000    0    14.007  -52.697750   22.991674    0.000000
   1 O     8.0000    0    15.999  -50.531677   22.991674    0.000000

--------------------------------
INTERNAL COORDINATES (ANGSTROEM)
--------------------------------
 N      0   0   0     0.000000000000     0.00000000     0.00000000
 O      1   0   0     1.146236723183     0.00000000     0.00000000

---------------------------
INTERNAL COORDINATES (A.U.)
---------------------------
 N      0   0   0     0.000000000000     0.00000000     0.00000000
 O      1   0   0     2.166073491459     0.00000000     0.00000000



           ************************************************************
           *        Program running with 4 parallel MPI-processes     *
           *              working on a common directory               *
           ************************************************************


           ************************************************************
           *        Program running with 4 parallel MPI-processes     *
           *              working on a common directory               *
           ************************************************************

Diagonalization of the overlap matrix:
Smallest eigenvalue                        ... 2.889e-03
Time for diagonalization                   ...    0.001 sec
Threshold for overlap eigenvalues          ... 1.000e-08
Number of eigenvalues below threshold      ... 0
Time for construction of square roots      ...    0.000 sec
Total time needed                          ...    0.001 sec

-------------------
DFT GRID GENERATION
-------------------

General Integration Accuracy     IntAcc      ...  4.340
Radial Grid Type                 RadialGrid  ... Gauss-Chebyshev
Angular Grid (max. acc.)         AngularGrid ... Lebedev-110
Angular grid pruning method      GridPruning ... 3 (G Style)
Weight generation scheme         WeightScheme... Becke
Basis function cutoff            BFCut       ...    1.0000e-11
Integration weight cutoff        WCut        ...    1.0000e-14
Grids for H and He will be reduced by one unit

# of grid points (after initial pruning)     ...   3418 (   0.0 sec)
# of grid points (after weights+screening)   ...   3392 (   0.0 sec)
nearest neighbour list constructed           ...    0.0 sec
Grid point re-assignment to atoms done       ...    0.0 sec
Grid point division into batches done        ...    0.0 sec
Reduced shell lists constructed in    0.0 sec

Total number of grid points                  ...     3392
Total number of batches                      ...       54
Average number of points per batch           ...       62
Average number of grid points per atom       ...     1696
Average number of shells per batch           ...    16.00 (80.00%)
Average number of basis functions per batch  ...    46.67 (77.78%)
Average number of large shells per batch     ...    13.53 (84.58%)
Average number of large basis fcns per batch ...    39.80 (85.29%)
Maximum spatial batch extension              ...  13.71, 19.31, 25.65 au
Average spatial batch extension              ...   2.26,  2.47,  2.85 au

Time for grid setup =    0.008 sec

--------------
SCF ITERATIONS
--------------
ITER       Energy         Delta-E        Max-DP      RMS-DP      [F,P]     Damp
               ***  Starting incremental Fock matrix formation  ***
  0   -129.8844397764   0.000000000000 0.00003948  0.00000218  0.0005624 0.7000
  1   -129.8844399637  -0.000000187270 0.00004203  0.00000198  0.0003698 0.7000
                               ***Turning on DIIS***
  2   -129.8844400919  -0.000000128235 0.00013414  0.00000564  0.0002406 0.0000
  3   -129.8844403948  -0.000000302870 0.00005531  0.00000162  0.0000457 0.0000
  4   -129.8844403951  -0.000000000275 0.00002115  0.00000069  0.0000704 0.0000
  5   -129.8844403990  -0.000000003962 0.00000557  0.00000024  0.0000394 0.0000
  6   -129.8844404003  -0.000000001277 0.00000329  0.00000009  0.0000042 0.0000
                 **** Energy Check signals convergence ****

               *****************************************************
               *                     SUCCESS                       *
               *           SCF CONVERGED AFTER   7 CYCLES          *
               *****************************************************

Setting up the final grid:

General Integration Accuracy     IntAcc      ...  4.670
Radial Grid Type                 RadialGrid  ... Gauss-Chebyshev
Angular Grid (max. acc.)         AngularGrid ... Lebedev-302
Angular grid pruning method      GridPruning ... 3 (G Style)
Weight generation scheme         WeightScheme... Becke
Basis function cutoff            BFCut       ...    1.0000e-11
Integration weight cutoff        WCut        ...    1.0000e-14
Grids for H and He will be reduced by one unit

# of grid points (after initial pruning)     ...  12424 (   0.0 sec)
# of grid points (after weights+screening)   ...  12394 (   0.0 sec)
nearest neighbour list constructed           ...    0.0 sec
Grid point re-assignment to atoms done       ...    0.0 sec
Grid point division into batches done        ...    0.0 sec
Reduced shell lists constructed in    0.1 sec

Total number of grid points                  ...    12394
Total number of batches                      ...      195
Average number of points per batch           ...       63
Average number of grid points per atom       ...     6197
Average number of shells per batch           ...    12.64 (63.20%)
Average number of basis functions per batch  ...    36.68 (61.13%)
Average number of large shells per batch     ...    10.48 (82.91%)
Average number of large basis fcns per batch ...    29.88 (81.46%)
Maximum spatial batch extension              ...  12.77, 19.94, 19.94 au
Average spatial batch extension              ...   1.37,  1.64,  1.60 au

Final grid set up in    0.1 sec
Final integration                            ... done (   0.0 sec)
Change in XC energy                          ...     0.000009827
Integrated number of electrons               ...    14.999999440
Previous integrated no of electrons          ...    14.999997086
Total Energy       :         -129.88443057 Eh           -3534.33504 eV
  Last Energy change         ...   -1.0917e-10  Tolerance :   1.0000e-08
  Last MAX-Density change    ...    9.3450e-07  Tolerance :   1.0000e-07
             **** THE GBW FILE WAS UPDATED (nitrogen_monoxide_B3LYP_cc-pVTZ_OPT.gbw) ****
             **** DENSITY FILE WAS UPDATED (nitrogen_monoxide_B3LYP_cc-pVTZ_OPT.scfp) ****
             **** ENERGY FILE WAS UPDATED (nitrogen_monoxide_B3LYP_cc-pVTZ_OPT.en.tmp) ****
----------------------
UHF SPIN CONTAMINATION
----------------------

Warning: in a DFT calculation there is little theoretical justification to 
         calculate <S**2> as in Hartree-Fock theory. We will do it anyways
         but you should keep in mind that the values have only limited relevance

Expectation value of <S**2>     :     0.753059
Ideal value S*(S+1) for S=0.5   :     0.750000
Deviation                       :     0.003059

             **** THE GBW FILE WAS UPDATED (nitrogen_monoxide_B3LYP_cc-pVTZ_OPT.gbw) ****
             **** DENSITY FILE WAS UPDATED (nitrogen_monoxide_B3LYP_cc-pVTZ_OPT.scfp) ****
Total SCF time: 0 days 0 hours 0 min 1 sec 

-------------------------   --------------------
FINAL SINGLE POINT ENERGY      -129.884430573653
-------------------------   --------------------



           ************************************************************
           *        Program running with 4 parallel MPI-processes     *
           *              working on a common directory               *
           ************************************************************
------------------------------------------------------------------------------
                         ORCA SCF GRADIENT CALCULATION
------------------------------------------------------------------------------

Gradient of the Kohn-Sham DFT energy:
Kohn-Sham wavefunction type      ... UKS
Hartree-Fock exchange scaling    ...    0.200
Number of operators              ...    2
Number of atoms                  ...    2
Basis set dimensions             ...   60
Integral neglect threshold       ... 2.5e-11
Integral primitive cutoff        ... 2.5e-12

Nuclear repulsion gradient       ... done
One Electron Gradient            ... done
Pre-screening matrix             ... done
Starting the two electron gradient:
Two electron gradient done
Exchange-correlation gradient    ... done

------------------
CARTESIAN GRADIENT
------------------

   1   N   :    0.000047712    0.000000001    0.000000000
   2   O   :   -0.000047712   -0.000000001   -0.000000000

Difference to translation invariance:
           :    0.0000000000   -0.0000000000    0.0000000000

Norm of the cartesian gradient     ...    0.0000674749
RMS gradient                       ...    0.0000275465
MAX gradient                       ...    0.0000477120

-------
TIMINGS
-------

Total SCF gradient time            ...        0.331 sec

One electron gradient       ....       0.005 sec  (  1.6%)
Prescreening matrices       ....       0.028 sec  (  8.4%)
Two electron gradient       ....       0.149 sec  ( 45.0%)
XC gradient                 ....       0.040 sec  ( 12.0%)
------------------------------------------------------------------------------
                         ORCA GEOMETRY RELAXATION STEP
------------------------------------------------------------------------------

Reading the OPT-File                    .... done
Getting information on internals        .... done
Copying old internal coords+grads       .... done
Making the new internal coordinates     .... (new redundants).... done
Validating the new internal coordinates .... (new redundants).... done
Calculating the B-matrix                .... done
Calculating the G,G- and P matrices     .... done
Transforming gradient to internals      .... done
Projecting the internal gradient        .... done
Number of atoms                         ....   2
Number of internal coordinates          ....   1
Current Energy                          ....  -129.884430574 Eh
Current gradient norm                   ....     0.000067475 Eh/bohr
Maximum allowed component of the step   ....  0.300
Current trust radius                    ....  0.300
Updating the Hessian (BFGS)             .... done
Forming the augmented Hessian           .... done
Diagonalizing the augmented Hessian     .... done
Last element of RFO vector              ....  0.999999999
Lowest eigenvalues of augmented Hessian:
 -0.000000002
Length of the computed step             ....  0.000043361
The final length of the internal step   ....  0.000043361
Converting the step to cartesian space:
 Initial RMS(Int)=    0.0000433612
Transforming coordinates:
 Iter   0:  RMS(Cart)=    0.0000125173 RMS(Int)=    0.0000433612
 Iter   1:  RMS(Cart)=    0.0000000000 RMS(Int)=    0.0000000000
done
Storing new coordinates                 .... done

                                .--------------------.
          ----------------------|Geometry convergence|-------------------------
          Item                value                   Tolerance       Converged
          ---------------------------------------------------------------------
          Energy change      -0.0000012513            0.0000050000      YES
          RMS gradient        0.0000477120            0.0001000000      YES
          MAX gradient        0.0000477120            0.0003000000      YES
          RMS step            0.0000433612            0.0020000000      YES
          MAX step            0.0000433612            0.0040000000      YES
          ........................................................
          Max(Bonds)      0.0000      Max(Angles)    0.00
          Max(Dihed)        0.00      Max(Improp)    0.00
          ---------------------------------------------------------------------

                    ***********************HURRAY********************
                    ***        THE OPTIMIZATION HAS CONVERGED     ***
                    *************************************************


    ---------------------------------------------------------------------------
                         Redundant Internal Coordinates

                          --- Optimized Parameters ---  
                            (Angstroem and degrees)

        Definition                    OldVal   dE/dq     Step     FinalVal
    ----------------------------------------------------------------------------
     1. B(O   1,N   0)                1.1462 -0.000048  0.0000    1.1463   
    ----------------------------------------------------------------------------
                 *******************************************************
                 *** FINAL ENERGY EVALUATION AT THE STATIONARY POINT ***
                 ***               (AFTER    3 CYCLES)               ***
                 *******************************************************
---------------------------------
CARTESIAN COORDINATES (ANGSTROEM)
---------------------------------
  N    -27.886460   12.166670    0.000000
  O    -26.740200   12.166670    0.000000

----------------------------
CARTESIAN COORDINATES (A.U.)
----------------------------
  NO LB      ZA    FRAG     MASS         X           Y           Z
   0 N     7.0000    0    14.007  -52.697772   22.991674    0.000000
   1 O     8.0000    0    15.999  -50.531655   22.991674    0.000000

--------------------------------
INTERNAL COORDINATES (ANGSTROEM)
--------------------------------
 N      0   0   0     0.000000000000     0.00000000     0.00000000
 O      1   0   0     1.146259668932     0.00000000     0.00000000

---------------------------
INTERNAL COORDINATES (A.U.)
---------------------------
 N      0   0   0     0.000000000000     0.00000000     0.00000000
 O      1   0   0     2.166116852641     0.00000000     0.00000000

---------------------
BASIS SET INFORMATION
---------------------
There are 2 groups of distinct atoms

 Group   1 Type N   : 18s5p2d1f contracted to 4s3p2d1f pattern {8811/311/11/1}
 Group   2 Type O   : 18s5p2d1f contracted to 4s3p2d1f pattern {8811/311/11/1}

Atom   0N    basis set group =>   1
Atom   1O    basis set group =>   2


           ************************************************************
           *        Program running with 4 parallel MPI-processes     *
           *              working on a common directory               *
           ************************************************************
------------------------------------------------------------------------------
                           ORCA GTO INTEGRAL CALCULATION
------------------------------------------------------------------------------

                         BASIS SET STATISTICS AND STARTUP INFO

 # of primitive gaussian shells          ...   52
 # of primitive gaussian functions       ...  100
 # of contracted shells                  ...   20
 # of contracted basis functions         ...   60
 Highest angular momentum                ...    3
 Maximum contraction depth               ...    8
 Integral package used                   ... LIBINT
 Integral threshhold            Thresh   ...  2.500e-11
 Primitive cut-off              TCut     ...  2.500e-12


------------------------------ INTEGRAL EVALUATION ----------------------------


 * One electron integrals 
 Pre-screening matrix                    ... done
 Shell pair data                         ... done (   0.000 sec)



           ************************************************************
           *        Program running with 4 parallel MPI-processes     *
           *              working on a common directory               *
           ************************************************************
-------------------------------------------------------------------------------
                                 ORCA SCF
-------------------------------------------------------------------------------

------------
SCF SETTINGS
------------
Hamiltonian:
 Density Functional     Method          .... DFT(GTOs)
 Exchange Functional    Exchange        .... B88
   X-Alpha parameter    XAlpha          ....  0.666667
   Becke's b parameter  XBeta           ....  0.004200
 Correlation Functional Correlation     .... LYP
 LDA part of GGA corr.  LDAOpt          .... VWN-5
 Gradients option       PostSCFGGA      .... off
 Hybrid DFT is turned on
   Fraction HF Exchange ScalHFX         ....  0.200000
   Scaling of DF-GGA-X  ScalDFX         ....  0.720000
   Scaling of DF-GGA-C  ScalDFC         ....  0.810000
   Scaling of DF-LDA-C  ScalLDAC        ....  1.000000
   Perturbative correction              ....  0.000000
   Density functional embedding theory  .... OFF
   NL short-range parameter             ....  4.800000


General Settings:
 Integral files         IntName         .... nitrogen_monoxide_B3LYP_cc-pVTZ_OPT
 Hartree-Fock type      HFTyp           .... UHF
 Total Charge           Charge          ....    0
 Multiplicity           Mult            ....    2
 Number of Electrons    NEL             ....   15
 Basis Dimension        Dim             ....   60
 Nuclear Repulsion      ENuc            ....     25.8527142392 Eh

Convergence Acceleration:
 DIIS                   CNVDIIS         .... on
   Start iteration      DIISMaxIt       ....    12
   Startup error        DIISStart       ....  0.200000
   # of expansion vecs  DIISMaxEq       ....     5
   Bias factor          DIISBfac        ....   1.050
   Max. coefficient     DIISMaxC        ....  10.000
 Newton-Raphson         CNVNR           .... off
 SOSCF                  CNVSOSCF        .... off
 Level Shifting         CNVShift        .... on
   Level shift para.    LevelShift      ....    0.2500
   Turn off err/grad.   ShiftErr        ....    0.0010
 Zerner damping         CNVZerner       .... off
 Static damping         CNVDamp         .... on
   Fraction old density DampFac         ....    0.7000
   Max. Damping (<1)    DampMax         ....    0.9800
   Min. Damping (>=0)   DampMin         ....    0.0000
   Turn off err/grad.   DampErr         ....    0.1000
 Fernandez-Rico         CNVRico         .... off

SCF Procedure:
 Maximum # iterations   MaxIter         ....   125
 SCF integral mode      SCFMode         .... Direct
   Integral package                     .... LIBINT
 Reset frequency        DirectResetFreq ....    20
 Integral Threshold     Thresh          ....  2.500e-11 Eh
 Primitive CutOff       TCut            ....  2.500e-12 Eh

Convergence Tolerance:
 Convergence Check Mode ConvCheckMode   .... Total+1el-Energy
 Convergence forced     ConvForced      .... 0
 Energy Change          TolE            ....  1.000e-08 Eh
 1-El. energy change                    ....  1.000e-05 Eh
 DIIS Error             TolErr          ....  5.000e-07


Diagonalization of the overlap matrix:
Smallest eigenvalue                        ... 2.889e-03
Time for diagonalization                   ...    0.001 sec
Threshold for overlap eigenvalues          ... 1.000e-08
Number of eigenvalues below threshold      ... 0
Time for construction of square roots      ...    0.000 sec
Total time needed                          ...    0.001 sec

---------------------
INITIAL GUESS: MOREAD
---------------------
Guess MOs are being read from file: nitrogen_monoxide_B3LYP_cc-pVTZ_OPT.gbw
Input Geometry matches current geometry (good)
Input basis set matches current basis set (good)
MOs were renormalized
MOs were reorthogonalized (Cholesky)
                      ------------------
                      INITIAL GUESS DONE (   0.0 sec)
                      ------------------
-------------------
DFT GRID GENERATION
-------------------

General Integration Accuracy     IntAcc      ...  4.340
Radial Grid Type                 RadialGrid  ... Gauss-Chebyshev
Angular Grid (max. acc.)         AngularGrid ... Lebedev-110
Angular grid pruning method      GridPruning ... 3 (G Style)
Weight generation scheme         WeightScheme... Becke
Basis function cutoff            BFCut       ...    1.0000e-11
Integration weight cutoff        WCut        ...    1.0000e-14
Grids for H and He will be reduced by one unit

# of grid points (after initial pruning)     ...   3418 (   0.0 sec)
# of grid points (after weights+screening)   ...   3392 (   0.0 sec)
nearest neighbour list constructed           ...    0.0 sec
Grid point re-assignment to atoms done       ...    0.0 sec
Grid point division into batches done        ...    0.0 sec
Reduced shell lists constructed in    0.0 sec

Total number of grid points                  ...     3392
Total number of batches                      ...       54
Average number of points per batch           ...       62
Average number of grid points per atom       ...     1696
Average number of shells per batch           ...    16.00 (80.00%)
Average number of basis functions per batch  ...    46.67 (77.78%)
Average number of large shells per batch     ...    13.53 (84.58%)
Average number of large basis fcns per batch ...    39.80 (85.29%)
Maximum spatial batch extension              ...  13.71, 19.31, 25.65 au
Average spatial batch extension              ...   2.26,  2.47,  2.86 au

Time for grid setup =    0.007 sec

--------------
SCF ITERATIONS
--------------
ITER       Energy         Delta-E        Max-DP      RMS-DP      [F,P]     Damp
               ***  Starting incremental Fock matrix formation  ***
  0   -129.8844403986   0.000000000000 0.00000127  0.00000006  0.0000151 0.7000
  1   -129.8844403987  -0.000000000158 0.00000134  0.00000006  0.0000101 0.7000
                               ***Turning on DIIS***
  2   -129.8844403988  -0.000000000119 0.00000405  0.00000016  0.0000067 0.0000
  3   -129.8844403991  -0.000000000245 0.00000130  0.00000004  0.0000011 0.0000
                 **** Energy Check signals convergence ****

               *****************************************************
               *                     SUCCESS                       *
               *           SCF CONVERGED AFTER   4 CYCLES          *
               *****************************************************

Setting up the final grid:

General Integration Accuracy     IntAcc      ...  4.670
Radial Grid Type                 RadialGrid  ... Gauss-Chebyshev
Angular Grid (max. acc.)         AngularGrid ... Lebedev-302
Angular grid pruning method      GridPruning ... 3 (G Style)
Weight generation scheme         WeightScheme... Becke
Basis function cutoff            BFCut       ...    1.0000e-11
Integration weight cutoff        WCut        ...    1.0000e-14
Grids for H and He will be reduced by one unit

# of grid points (after initial pruning)     ...  12424 (   0.0 sec)
# of grid points (after weights+screening)   ...  12394 (   0.0 sec)
nearest neighbour list constructed           ...    0.0 sec
Grid point re-assignment to atoms done       ...    0.0 sec
Grid point division into batches done        ...    0.0 sec
Reduced shell lists constructed in    0.0 sec

Total number of grid points                  ...    12394
Total number of batches                      ...      195
Average number of points per batch           ...       63
Average number of grid points per atom       ...     6197
Average number of shells per batch           ...    12.64 (63.20%)
Average number of basis functions per batch  ...    36.68 (61.13%)
Average number of large shells per batch     ...    10.46 (82.75%)
Average number of large basis fcns per batch ...    29.78 (81.19%)
Maximum spatial batch extension              ...  12.77, 19.94, 19.94 au
Average spatial batch extension              ...   1.37,  1.64,  1.60 au

Final grid set up in    0.1 sec
Final integration                            ... done (   0.0 sec)
Change in XC energy                          ...     0.000009825
Integrated number of electrons               ...    14.999999444
Previous integrated no of electrons          ...    14.999997087

----------------
TOTAL SCF ENERGY
----------------

Total Energy       :         -129.88443057 Eh           -3534.33504 eV

Components:
Nuclear Repulsion  :           25.85271424 Eh             703.48812 eV
Electronic Energy  :         -155.73714481 Eh           -4237.82316 eV
One Electron Energy:         -228.18196258 Eh           -6209.14687 eV
Two Electron Energy:           72.44481776 Eh            1971.32371 eV

Virial components:
Potential Energy   :         -259.11471380 Eh           -7050.86982 eV
Kinetic Energy     :          129.23028323 Eh            3516.53478 eV
Virial Ratio       :            2.00506187


DFT components:
N(Alpha)           :        7.999999738100 electrons
N(Beta)            :        6.999999705638 electrons
N(Total)           :       14.999999443738 electrons
E(X)               :      -11.744848802658 Eh       
E(C)               :       -0.623498032392 Eh       
E(XC)              :      -12.368346835049 Eh       
DFET-embed. en.    :        0.000000000000 Eh       

---------------
SCF CONVERGENCE
---------------

  Last Energy change         ...    5.2438e-11  Tolerance :   1.0000e-08
  Last MAX-Density change    ...    4.9154e-07  Tolerance :   1.0000e-07
  Last RMS-Density change    ...    1.7392e-08  Tolerance :   5.0000e-09
  Last DIIS Error            ...    1.7040e-06  Tolerance :   5.0000e-07

             **** THE GBW FILE WAS UPDATED (nitrogen_monoxide_B3LYP_cc-pVTZ_OPT.gbw) ****
             **** DENSITY FILE WAS UPDATED (nitrogen_monoxide_B3LYP_cc-pVTZ_OPT.scfp) ****
             **** ENERGY FILE WAS UPDATED (nitrogen_monoxide_B3LYP_cc-pVTZ_OPT.en.tmp) ****
----------------------
UHF SPIN CONTAMINATION
----------------------

Warning: in a DFT calculation there is little theoretical justification to 
         calculate <S**2> as in Hartree-Fock theory. We will do it anyways
         but you should keep in mind that the values have only limited relevance

Expectation value of <S**2>     :     0.753059
Ideal value S*(S+1) for S=0.5   :     0.750000
Deviation                       :     0.003059

             **** THE GBW FILE WAS UPDATED (nitrogen_monoxide_B3LYP_cc-pVTZ_OPT.gbw) ****
             **** DENSITY FILE WAS UPDATED (nitrogen_monoxide_B3LYP_cc-pVTZ_OPT.scfp) ****
----------------
ORBITAL ENERGIES
----------------
                 SPIN UP ORBITALS
  NO   OCC          E(Eh)            E(eV) 
   0   1.0000     -19.266118      -524.2577 
   1   1.0000     -14.453367      -393.2961 
   2   1.0000      -1.250015       -34.0146 
   3   1.0000      -0.688279       -18.7290 
   4   1.0000      -0.539458       -14.6794 
   5   1.0000      -0.512103       -13.9350 
   6   1.0000      -0.486533       -13.2392 
   7   1.0000      -0.215665        -5.8685 
   8   0.0000      -0.104298        -2.8381 
   9   0.0000       0.239146         6.5075 
  10   0.0000       0.413495        11.2518 
  11   0.0000       0.419861        11.4250 
  12   0.0000       0.450017        12.2456 
  13   0.0000       0.514204        13.9922 
  14   0.0000       0.577048        15.7023 
  15   0.0000       0.596994        16.2450 
  16   0.0000       0.604291        16.4436 
  17   0.0000       0.924025        25.1440 
  18   0.0000       0.925807        25.1925 
  19   0.0000       1.128391        30.7051 
  20   0.0000       1.129155        30.7259 
  21   0.0000       1.175661        31.9914 
  22   0.0000       1.521693        41.4074 
  23   0.0000       1.522828        41.4383 
  24   0.0000       1.636735        44.5378 
  25   0.0000       1.998243        54.3749 
  26   0.0000       2.000304        54.4310 
  27   0.0000       2.208006        60.0829 
  28   0.0000       2.808213        76.4153 
  29   0.0000       2.824851        76.8681 
  30   0.0000       3.060801        83.2886 
  31   0.0000       3.529663        96.0470 
  32   0.0000       3.538054        96.2753 
  33   0.0000       3.757796       102.2548 
  34   0.0000       3.759498       102.3011 
  35   0.0000       3.778871       102.8283 
  36   0.0000       3.779460       102.8443 
  37   0.0000       3.878708       105.5450 
  38   0.0000       4.048560       110.1669 
  39   0.0000       4.049577       110.1946 
  40   0.0000       4.281972       116.5184 
  41   0.0000       4.354002       118.4784 
  42   0.0000       4.359338       118.6236 
  43   0.0000       4.725920       128.5988 
  44   0.0000       4.729841       128.7055 
  45   0.0000       4.789497       130.3288 
  46   0.0000       5.049937       137.4158 
  47   0.0000       5.050183       137.4225 
  48   0.0000       5.539588       150.7399 
  49   0.0000       5.540886       150.7752 
  50   0.0000       6.150096       167.3526 
  51   0.0000       6.150580       167.3658 
  52   0.0000       6.280640       170.9049 
  53   0.0000       6.387917       173.8241 
  54   0.0000       6.391671       173.9262 
  55   0.0000       6.921027       188.3307 
  56   0.0000       6.922694       188.3761 
  57   0.0000       6.962041       189.4468 
  58   0.0000       7.111740       193.5203 
  59   0.0000      13.370549       363.8311 

                 SPIN DOWN ORBITALS
  NO   OCC          E(Eh)            E(eV) 
   0   1.0000     -19.255493      -523.9686 
   1   1.0000     -14.437561      -392.8660 
   2   1.0000      -1.228933       -33.4410 
   3   1.0000      -0.651691       -17.7334 
   4   1.0000      -0.502457       -13.6726 
   5   1.0000      -0.466116       -12.6837 
   6   1.0000      -0.462167       -12.5762 
   7   0.0000      -0.088675        -2.4130 
   8   0.0000      -0.046811        -1.2738 
   9   0.0000       0.246034         6.6949 
  10   0.0000       0.425767        11.5857 
  11   0.0000       0.448180        12.1956 
  12   0.0000       0.465134        12.6570 
  13   0.0000       0.525870        14.3097 
  14   0.0000       0.589999        16.0547 
  15   0.0000       0.608213        16.5503 
  16   0.0000       0.625900        17.0316 
  17   0.0000       0.950612        25.8675 
  18   0.0000       0.950653        25.8686 
  19   0.0000       1.131835        30.7988 
  20   0.0000       1.159665        31.5561 
  21   0.0000       1.184820        32.2406 
  22   0.0000       1.544911        42.0392 
  23   0.0000       1.545174        42.0463 
  24   0.0000       1.650932        44.9241 
  25   0.0000       2.003536        54.5190 
  26   0.0000       2.027140        55.1613 
  27   0.0000       2.220901        60.4338 
  28   0.0000       2.838012        77.2262 
  29   0.0000       2.878053        78.3158 
  30   0.0000       3.074909        83.6725 
  31   0.0000       3.544757        96.4577 
  32   0.0000       3.575830        97.3033 
  33   0.0000       3.781593       102.9024 
  34   0.0000       3.781618       102.9030 
  35   0.0000       3.824006       104.0565 
  36   0.0000       3.824031       104.0572 
  37   0.0000       3.896565       106.0309 
  38   0.0000       4.054705       110.3341 
  39   0.0000       4.086703       111.2048 
  40   0.0000       4.299651       116.9994 
  41   0.0000       4.420457       120.2868 
  42   0.0000       4.421623       120.3185 
  43   0.0000       4.735155       128.8501 
  44   0.0000       4.769930       129.7964 
  45   0.0000       4.806411       130.7891 
  46   0.0000       5.074995       138.0976 
  47   0.0000       5.075020       138.0983 
  48   0.0000       5.559794       151.2897 
  49   0.0000       5.560091       151.2978 
  50   0.0000       6.186691       168.3484 
  51   0.0000       6.188402       168.3950 
  52   0.0000       6.293275       171.2487 
  53   0.0000       6.395770       174.0378 
  54   0.0000       6.425670       174.8514 
  55   0.0000       6.924535       188.4262 
  56   0.0000       6.953248       189.2075 
  57   0.0000       6.980024       189.9361 
  58   0.0000       7.126099       193.9110 
  59   0.0000      13.389819       364.3555 

                    ********************************
                    * MULLIKEN POPULATION ANALYSIS *
                    ********************************

--------------------------------------------
MULLIKEN ATOMIC CHARGES AND SPIN POPULATIONS
--------------------------------------------
   0 N :   -0.003953    0.689885
   1 O :    0.003953    0.310115
Sum of atomic charges         :   -0.0000000
Sum of atomic spin populations:    1.0000000

-----------------------------------------------------
MULLIKEN REDUCED ORBITAL CHARGES AND SPIN POPULATIONS
-----------------------------------------------------
CHARGE
  0 N s       :     3.910119  s :     3.910119
      pz      :     0.697160  p :     3.001153
      px      :     0.982805
      py      :     1.321187
      dz2     :     0.006521  d :     0.084404
      dxz     :     0.028905
      dyz     :     0.000000
      dx2y2   :     0.019727
      dxy     :     0.029251
      f0      :     0.000699  f :     0.008277
      f+1     :     0.000756
      f-1     :     0.000063
      f+2     :     0.001767
      f-2     :     0.000000
      f+3     :     0.001878
      f-3     :     0.003114
  1 O s       :     3.760797  s :     3.760797
      pz      :     1.255590  p :     4.181628
      px      :     1.298597
      py      :     1.627440
      dz2     :     0.004141  d :     0.049428
      dxz     :     0.014802
      dyz     :     0.000000
      dx2y2   :     0.012989
      dxy     :     0.017497
      f0      :     0.000299  f :     0.004194
      f+1     :     0.000510
      f-1     :     0.000040
      f+2     :     0.000777
      f-2     :     0.000000
      f+3     :     0.001161
      f-3     :     0.001407

SPIN
  0 N s       :     0.007094  s :     0.007094
      pz      :     0.014359  p :     0.684470
      px      :    -0.005163
      py      :     0.675274
      dz2     :    -0.000706  d :    -0.001086
      dxz     :    -0.000609
      dyz     :     0.000000
      dx2y2   :     0.001098
      dxy     :    -0.000868
      f0      :     0.000193  f :    -0.000592
      f+1     :     0.000034
      f-1     :     0.000104
      f+2     :    -0.000432
      f-2     :     0.000000
      f+3     :    -0.000366
      f-3     :    -0.000124
  1 O s       :     0.008578  s :     0.008578
      pz      :    -0.013266  p :     0.299082
      px      :    -0.010570
      py      :     0.322918
      dz2     :    -0.000331  d :     0.002408
      dxz     :    -0.000199
      dyz     :    -0.000000
      dx2y2   :     0.000424
      dxy     :     0.002514
      f0      :     0.000071  f :     0.000047
      f+1     :     0.000017
      f-1     :     0.000050
      f+2     :    -0.000116
      f-2     :    -0.000000
      f+3     :    -0.000108
      f-3     :     0.000133


                     *******************************
                     * LOEWDIN POPULATION ANALYSIS *
                     *******************************

-------------------------------------------
LOEWDIN ATOMIC CHARGES AND SPIN POPULATIONS
-------------------------------------------
   0 N :   -0.136187    0.662431
   1 O :    0.136187    0.337569

----------------------------------------------------
LOEWDIN REDUCED ORBITAL CHARGES AND SPIN POPULATIONS
----------------------------------------------------
CHARGE
  0 N s       :     3.550111  s :     3.550111
      pz      :     0.714197  p :     3.272152
      px      :     1.285699
      py      :     1.272256
      dz2     :     0.027610  d :     0.268355
      dxz     :     0.056710
      dyz     :     0.000000
      dx2y2   :     0.082875
      dxy     :     0.101160
      f0      :     0.003707  f :     0.045569
      f+1     :     0.005513
      f-1     :     0.001115
      f+2     :     0.006693
      f-2     :     0.000000
      f+3     :     0.009879
      f-3     :     0.018661
  1 O s       :     3.496030  s :     3.496030
      pz      :     1.199929  p :     4.222626
      px      :     1.480384
      py      :     1.542314
      dz2     :     0.014061  d :     0.131651
      dxz     :     0.016985
      dyz     :     0.000000
      dx2y2   :     0.042943
      dxy     :     0.057662
      f0      :     0.000597  f :     0.013505
      f+1     :     0.001717
      f-1     :     0.000396
      f+2     :     0.001182
      f-2     :     0.000000
      f+3     :     0.003177
      f-3     :     0.006436

SPIN
  0 N s       :     0.005945  s :     0.005945
      pz      :     0.012606  p :     0.607965
      px      :    -0.006762
      py      :     0.602121
      dz2     :    -0.000577  d :     0.040846
      dxz     :    -0.001329
      dyz     :     0.000000
      dx2y2   :     0.002461
      dxy     :     0.040292
      f0      :     0.000105  f :     0.007676
      f+1     :     0.000104
      f-1     :     0.000599
      f+2     :    -0.000464
      f-2     :     0.000000
      f+3     :    -0.000312
      f-3     :     0.007644
  1 O s       :     0.003709  s :     0.003709
      pz      :    -0.011213  p :     0.284754
      px      :    -0.006028
      py      :     0.301996
      dz2     :     0.000111  d :     0.043897
      dxz     :     0.000266
      dyz     :    -0.000000
      dx2y2   :     0.001345
      dxy     :     0.042175
      f0      :     0.000071  f :     0.005209
      f+1     :     0.000070
      f-1     :     0.000348
      f+2     :    -0.000041
      f-2     :    -0.000000
      f+3     :    -0.000065
      f-3     :     0.004826


                      *****************************
                      * MAYER POPULATION ANALYSIS *
                      *****************************

  NA   - Mulliken gross atomic population
  ZA   - Total nuclear charge
  QA   - Mulliken gross atomic charge
  VA   - Mayer's total valence
  BVA  - Mayer's bonded valence
  FA   - Mayer's free valence

  ATOM       NA         ZA         QA         VA         BVA        FA
  0 N      7.0040     7.0000    -0.0040     2.7177     2.2421     0.4756
  1 O      7.9960     8.0000     0.0040     2.3624     2.2421     0.1204

  Mayer bond orders larger than 0.100000
B(  0-N ,  1-O ) :   2.2421 

-------
TIMINGS
-------

Total SCF time: 0 days 0 hours 0 min 0 sec 

Total time                  ....       0.921 sec
Sum of individual times     ....       0.753 sec  ( 81.7%)

Fock matrix formation       ....       0.688 sec  ( 74.7%)
  XC integration            ....       0.041 sec  (  5.9% of F)
    Basis function eval.    ....       0.008 sec  ( 19.3% of XC)
    Density eval.           ....       0.006 sec  ( 15.9% of XC)
    XC-Functional eval.     ....       0.005 sec  ( 11.1% of XC)
    XC-Potential eval.      ....       0.012 sec  ( 29.7% of XC)
Diagonalization             ....       0.004 sec  (  0.4%)
Density matrix formation    ....       0.000 sec  (  0.0%)
Population analysis         ....       0.001 sec  (  0.1%)
Initial guess               ....       0.001 sec  (  0.1%)
Orbital Transformation      ....       0.000 sec  (  0.0%)
Orbital Orthonormalization  ....       0.000 sec  (  0.1%)
DIIS solution               ....       0.001 sec  (  0.1%)
Grid generation             ....       0.058 sec  (  6.3%)

-------------------------   --------------------
FINAL SINGLE POINT ENERGY      -129.884430574207
-------------------------   --------------------

                                *** OPTIMIZATION RUN DONE ***

                            ***************************************
                            *     ORCA property calculations      *
                            ***************************************

                                    ---------------------
                                    Active property flags
                                    ---------------------
   (+) Dipole Moment


------------------------------------------------------------------------------
                       ORCA ELECTRIC PROPERTIES CALCULATION
------------------------------------------------------------------------------

Dipole Moment Calculation                       ... on
Quadrupole Moment Calculation                   ... off
Polarizability Calculation                      ... off
GBWName                                         ... nitrogen_monoxide_B3LYP_cc-pVTZ_OPT.gbw
Electron density file                           ... nitrogen_monoxide_B3LYP_cc-pVTZ_OPT.scfp
The origin for moment calculation is the CENTER OF MASS  = (-51.542813, 22.991674  0.000000)

-------------
DIPOLE MOMENT
-------------
                                X             Y             Z
Electronic contribution:      0.03791       0.00000       0.00000
Nuclear contribution   :      0.00455       0.00000       0.00000
                        -----------------------------------------
Total Dipole Moment    :      0.04246       0.00000       0.00000
                        -----------------------------------------
Magnitude (a.u.)       :      0.04246
Magnitude (Debye)      :      0.10792



--------------------
Rotational spectrum 
--------------------
 
Rotational constants in cm-1:     0.000000     1.717912     1.717912 
Rotational constants in MHz :     0.000000 51501.718141 51501.718141 

 Dipole components along the rotational axes: 
x,y,z [a.u.] :     0.042459     0.000000     0.000000 
x,y,z [Debye]:     0.107923     0.000000     0.000000 

 

Timings for individual modules:

Sum of individual times         ...        8.675 sec (=   0.145 min)
GTO integral calculation        ...        1.168 sec (=   0.019 min)  13.5 %
SCF iterations                  ...        6.118 sec (=   0.102 min)  70.5 %
SCF Gradient evaluation         ...        1.343 sec (=   0.022 min)  15.5 %
Geometry relaxation             ...        0.046 sec (=   0.001 min)   0.5 %
                             ****ORCA TERMINATED NORMALLY****
TOTAL RUN TIME: 0 days 0 hours 0 minutes 8 seconds 896 msec
