
                                 *****************
                                 * O   R   C   A *
                                 *****************

           --- An Ab Initio, DFT and Semiempirical electronic structure package ---

                  #######################################################
                  #                        -***-                        #
                  #          Department of theory and spectroscopy      #
                  #               Directorship: Frank Neese             #
                  #        Max Planck Institute fuer Kohlenforschung    #
                  #                Kaiser Wilhelm Platz 1               #
                  #                 D-45470 Muelheim/Ruhr               #
                  #                      Germany                        #
                  #                                                     #
                  #                  All rights reserved                #
                  #                        -***-                        #
                  #######################################################


                         Program Version 4.2.1 -  RELEASE  -


 With contributions from (in alphabetic order):
   Daniel Aravena         : Magnetic Suceptibility
   Michael Atanasov       : Ab Initio Ligand Field Theory (pilot matlab implementation)
   Alexander A. Auer      : GIAO ZORA, VPT2
   Ute Becker             : Parallelization
   Giovanni Bistoni       : ED, misc. LED, open-shell LED, HFLD
   Martin Brehm           : Molecular dynamics
   Dmytro Bykov           : SCF Hessian
   Vijay G. Chilkuri      : MRCI spin determinant printing, contributions to CSF-ICE
   Dipayan Datta          : RHF DLPNO-CCSD density
   Achintya Kumar Dutta   : EOM-CC, STEOM-CC
   Dmitry Ganyushin       : Spin-Orbit,Spin-Spin,Magnetic field MRCI
   Miquel Garcia          : C-PCM Hessian, Gaussian charge scheme
   Yang Guo               : DLPNO-NEVPT2, CIM, IAO-localization
   Andreas Hansen         : Spin unrestricted coupled pair/coupled cluster methods
   Benjamin Helmich-Paris : CASSCF linear response (MC-RPA)
   Lee Huntington         : MR-EOM, pCC
   Robert Izsak           : Overlap fitted RIJCOSX, COSX-SCS-MP3, EOM
   Christian Kollmar      : KDIIS, OOCD, Brueckner-CCSD(T), CCSD density
   Simone Kossmann        : Meta GGA functionals, TD-DFT gradient, OOMP2, MP2 Hessian
   Martin Krupicka        : AUTO-CI
   Lucas Lang             : DCDCAS
   Dagmar Lenk            : GEPOL surface, SMD
   Dimitrios Liakos       : Extrapolation schemes; Compound Job, initial MDCI parallelization
   Dimitrios Manganas     : Further ROCIS development; embedding schemes
   Dimitrios Pantazis     : SARC Basis sets
   Taras Petrenko         : DFT Hessian,TD-DFT gradient, ASA, ECA, R-Raman, ABS, FL, XAS/XES, NRVS
   Peter Pinski           : DLPNO-MP2, DLPNO-MP2 Gradient
   Christoph Reimann      : Effective Core Potentials
   Marius Retegan         : Local ZFS, SOC
   Christoph Riplinger    : Optimizer, TS searches, QM/MM, DLPNO-CCSD(T), (RO)-DLPNO pert. Triples
   Tobias Risthaus        : Range-separated hybrids, TD-DFT gradient, RPA, STAB
   Michael Roemelt        : Original ROCIS implementation
   Masaaki Saitow         : Open-shell DLPNO-CCSD energy and density
   Barbara Sandhoefer     : DKH picture change effects
   Avijit Sen             : IP-ROCIS
   Kantharuban Sivalingam : CASSCF convergence, NEVPT2, FIC-MRCI
   Bernardo de Souza      : ESD, SOC TD-DFT
   Georgi Stoychev        : AutoAux, RI-MP2 NMR
   Willem Van den Heuvel  : Paramagnetic NMR
   Boris Wezisla          : Elementary symmetry handling
   Frank Wennmohs         : Technical directorship


 We gratefully acknowledge several colleagues who have allowed us to
 interface, adapt or use parts of their codes:
   Stefan Grimme, W. Hujo, H. Kruse,             : VdW corrections, initial TS optimization,
                  C. Bannwarth                     DFT functionals, gCP, sTDA/sTD-DF
   Ed Valeev, F. Pavosevic, A. Kumar             : LibInt (2-el integral package), F12 methods
   Garnet Chan, S. Sharma, J. Yang, R. Olivares  : DMRG
   Ulf Ekstrom                                   : XCFun DFT Library
   Mihaly Kallay                                 : mrcc  (arbitrary order and MRCC methods)
   Andreas Klamt, Michael Diedenhofen            : otool_cosmo (COSMO solvation model)
   Jiri Pittner, Ondrej Demel                    : Mk-CCSD
   Frank Weinhold                                : gennbo (NPA and NBO analysis)
   Christopher J. Cramer and Donald G. Truhlar   : smd solvation model
   Lars Goerigk                                  : TD-DFT with DH, B97 family of functionals
   V. Asgeirsson, H. Jonsson                     : NEB implementation
   FAccTs GmbH                                   : IRC, NEB, NEB-TS, Multilevel, MM, QM/MM, CI optimization
   S Lehtola, MJT Oliveira, MAL Marques          : LibXC Library


 Your calculation uses the libint2 library for the computation of 2-el integrals
 For citations please refer to: http://libint.valeyev.net

 Your ORCA version has been built with support for libXC version: 4.2.3
 For citations please refer to: https://tddft.org/programs/libxc/

 This ORCA versions uses:
   CBLAS   interface :  Fast vector & matrix operations
   LAPACKE interface :  Fast linear algebra routines
   SCALAPACK package :  Parallel linear algebra routines




***************************************
The coordinates will be read from file: nitrogen_monoxide_MP2_aug-cc-pVTZ_OPT.xyz
***************************************


----- Orbital basis set information -----
Your calculation utilizes the basis: aug-cc-pVTZ 
    H, B-Ne : Obtained from the ccRepo (grant-hill.group.shef.ac.uk/ccrepo) Feb. 2017
              R. A. Kendall, T. H. Dunning, Jr., R. J. Harrison, J. Chem. Phys. 96, 6796 (1992)
         He : Obtained from the ccRepo (grant-hill.group.shef.ac.uk/ccrepo) Feb. 2017
              D. E. Woon, T. H. Dunning, Jr., J. Chem. Phys. 100, 2975 (1994)
  Li-Be, Na : Obtained from the ccRepo (grant-hill.group.shef.ac.uk/ccrepo) Feb. 2017
              B. P. Prascher, D. E. Woon, K. A. Peterson, T. H. Dunning, Jr., A. K. Wilson, Theor. Chem. Acc. 128, 69 (2011)
         Mg : Obtained from the Peterson Research Group Website (tyr0.chem.wsu.edu/~kipeters) Feb. 2017
              B. P. Prascher, D. E. Woon, K. A. Peterson, T. H. Dunning, Jr., A. K. Wilson, Theor. Chem. Acc. 128, 69 (2011)
      Al-Ar : Obtained from the ccRepo (grant-hill.group.shef.ac.uk/ccrepo) Feb. 2017
              D. E. Woon, T. H. Dunning, Jr., J. Chem. Phys. 98, 1358 (1993)
      Sc-Zn : Obtained from the ccRepo (grant-hill.group.shef.ac.uk/ccrepo) Feb. 2017
              N. B. Balabanov, K. A. Peterson, J. Chem. Phys. 123, 064107 (2005)
              N. B. Balabanov, K. A. Peterson, J. Chem. Phys. 125, 074110 (2006)
      Ga-Kr : Obtained from the ccRepo (grant-hill.group.shef.ac.uk/ccrepo) Feb. 2017
              A. K. Wilson, D. E. Woon, K. A. Peterson, T. H. Dunning, Jr., J. Chem. Phys. 110, 7667 (1999)
     Ag, Au : Obtained from the Peterson Research Group Website (tyr0.chem.wsu.edu/~kipeters) Feb. 2017
              K. A. Peterson, C. Puzzarini, Theor. Chem. Acc. 114, 283 (2005)

----- AuxC basis set information -----
Your calculation utilizes the auxiliary basis: aug-cc-pVTZ/C 
  H-He, B-F, Al-Ar, Ga-Kr : Obtained from the EMSL Basis Set Exchange (bse.pnl.gov) Feb. 2017
                            F. Weigend, A. Kohn, C. Hattig, J. Chem. Phys. 116, 3175 (2002)
                   Be, Mg : Obtained from the TURBOMOLE 7.0 basis set library
                            C. Haettig, Phys. Chem. Chem. Phys. 7, 59 (2005)
                       Ne : Obtained from the EMSL Basis Set Exchange (bse.pnl.gov) Feb. 2017
                            C. Haettig, Phys. Chem. Chem. Phys. 7, 59 (2005)
                            F. Weigend, A. Kohn, C. Hattig, J. Chem. Phys. 116, 3175 (2002)
                    Sc-Zn : Obtained from the EMSL Basis Set Exchange (bse.pnl.gov) Feb. 2017
                            J. G. Hill, J. A. Platts, J. Chem. Phys. 128, 044104 (2008)

================================================================================
                                        WARNINGS
                       Please study these warnings very carefully!
================================================================================


WARNING: your system is open-shell and RHF/RKS was chosen
  ===> : WILL SWITCH to UHF/UKS


WARNING: PNO calculations with unrestricted orbitals require UNOs
  ===> : Switching on UNOs

WARNING: Unrestricted DLPNO-CCSD(T0/T) with FullLMP2-Guess requested.
         This is not yet implemented.
         When comparing energies between closed and open shell calculations:
  ===> : Be aware to set UseFullLMP2Guess to false for the corresponding closed shell calculations.
         Note that UseFullLMP2Guess is done by default only for TightPNO closed shell calculations.


WARNING: MDCI localization with Augmented Hessian Foster-Boys
  ===> : Switching off randomization!

WARNING: Post HF methods need fully converged wavefunctions
  ===> : Setting SCFConvForced true
         You can overwrite this default with %scf ConvForced false 


INFO   : the flag for use of LIBINT has been found!

================================================================================
                                       INPUT FILE
================================================================================
NAME = nitrogen_monoxide_DLPNO-CCSD_aug-cc-pVTZ_SPE.inp
|  1> # nitrogen_monoxide DLPNO-CCSD/aug-cc-pVTZ SPE
|  2> 
|  3> ! DLPNO-CCSD aug-cc-pVTZ aug-cc-pVTZ/C TightSCF PAL4
|  4> 
|  5> * xyzfile 0 2 nitrogen_monoxide_MP2_aug-cc-pVTZ_OPT.xyz
|  6> 
|  7> 
|  8>                          ****END OF INPUT****
================================================================================

                       ****************************
                       * Single Point Calculation *
                       ****************************

---------------------------------
CARTESIAN COORDINATES (ANGSTROEM)
---------------------------------
  N    -27.881903   12.166670    0.000000
  O    -26.744757   12.166670    0.000000

----------------------------
CARTESIAN COORDINATES (A.U.)
----------------------------
  NO LB      ZA    FRAG     MASS         X           Y           Z
   0 N     7.0000    0    14.007  -52.689162   22.991674    0.000000
   1 O     8.0000    0    15.999  -50.540265   22.991674    0.000000

--------------------------------
INTERNAL COORDINATES (ANGSTROEM)
--------------------------------
 N      0   0   0     0.000000000000     0.00000000     0.00000000
 O      1   0   0     1.137146990962     0.00000000     0.00000000

---------------------------
INTERNAL COORDINATES (A.U.)
---------------------------
 N      0   0   0     0.000000000000     0.00000000     0.00000000
 O      1   0   0     2.148896386931     0.00000000     0.00000000

---------------------
BASIS SET INFORMATION
---------------------
There are 2 groups of distinct atoms

 Group   1 Type N   : 19s6p3d2f contracted to 5s4p3d2f pattern {88111/3111/111/11}
 Group   2 Type O   : 19s6p3d2f contracted to 5s4p3d2f pattern {88111/3111/111/11}

Atom   0N    basis set group =>   1
Atom   1O    basis set group =>   2
---------------------------------
AUXILIARY/C BASIS SET INFORMATION
---------------------------------
There are 2 groups of distinct atoms

 Group   1 Type N   : 9s7p6d4f2g contracted to 9s7p6d4f2g pattern {111111111/1111111/111111/1111/11}
 Group   2 Type O   : 9s7p6d4f2g contracted to 9s7p6d4f2g pattern {111111111/1111111/111111/1111/11}

Atom   0N    basis set group =>   1
Atom   1O    basis set group =>   2


           ************************************************************
           *        Program running with 4 parallel MPI-processes     *
           *              working on a common directory               *
           ************************************************************
------------------------------------------------------------------------------
                           ORCA GTO INTEGRAL CALCULATION
------------------------------------------------------------------------------

                         BASIS SET STATISTICS AND STARTUP INFO

 # of primitive gaussian shells          ...   60
 # of primitive gaussian functions       ...  132
 # of contracted shells                  ...   28
 # of contracted basis functions         ...   92
 Highest angular momentum                ...    3
 Maximum contraction depth               ...    8
 Integral package used                   ... LIBINT
 Integral threshhold            Thresh   ...  2.500e-11
 Primitive cut-off              TCut     ...  2.500e-12


------------------------------ INTEGRAL EVALUATION ----------------------------


 * One electron integrals 
 Pre-screening matrix                    ... done
 Shell pair data                         ... done (   0.000 sec)



           ************************************************************
           *        Program running with 4 parallel MPI-processes     *
           *              working on a common directory               *
           ************************************************************
-------------------------------------------------------------------------------
                                 ORCA SCF
-------------------------------------------------------------------------------

------------
SCF SETTINGS
------------
Hamiltonian:
 Ab initio Hamiltonian  Method          .... Hartree-Fock(GTOs)


General Settings:
 Integral files         IntName         .... nitrogen_monoxide_DLPNO-CCSD_aug-cc-pVTZ_SPE
 Hartree-Fock type      HFTyp           .... UHF
 Total Charge           Charge          ....    0
 Multiplicity           Mult            ....    2
 Number of Electrons    NEL             ....   15
 Basis Dimension        Dim             ....   92
 Nuclear Repulsion      ENuc            ....     26.0598883876 Eh

Convergence Acceleration:
 DIIS                   CNVDIIS         .... on
   Start iteration      DIISMaxIt       ....    12
   Startup error        DIISStart       ....  0.200000
   # of expansion vecs  DIISMaxEq       ....     5
   Bias factor          DIISBfac        ....   1.050
   Max. coefficient     DIISMaxC        ....  10.000
 Newton-Raphson         CNVNR           .... off
 SOSCF                  CNVSOSCF        .... off
 Level Shifting         CNVShift        .... on
   Level shift para.    LevelShift      ....    0.2500
   Turn off err/grad.   ShiftErr        ....    0.0010
 Zerner damping         CNVZerner       .... off
 Static damping         CNVDamp         .... on
   Fraction old density DampFac         ....    0.7000
   Max. Damping (<1)    DampMax         ....    0.9800
   Min. Damping (>=0)   DampMin         ....    0.0000
   Turn off err/grad.   DampErr         ....    0.1000
 Fernandez-Rico         CNVRico         .... off

SCF Procedure:
 Maximum # iterations   MaxIter         ....   125
 SCF integral mode      SCFMode         .... Direct
   Integral package                     .... LIBINT
 Reset frequency        DirectResetFreq ....    20
 Integral Threshold     Thresh          ....  2.500e-11 Eh
 Primitive CutOff       TCut            ....  2.500e-12 Eh

Convergence Tolerance:
 Convergence Check Mode ConvCheckMode   .... Total+1el-Energy
 Convergence forced     ConvForced      .... 1
 Energy Change          TolE            ....  1.000e-08 Eh
 1-El. energy change                    ....  1.000e-05 Eh
 DIIS Error             TolErr          ....  5.000e-07


Diagonalization of the overlap matrix:
Smallest eigenvalue                        ... 2.821e-04
Time for diagonalization                   ...    0.001 sec
Threshold for overlap eigenvalues          ... 1.000e-08
Number of eigenvalues below threshold      ... 0
Time for construction of square roots      ...    0.000 sec
Total time needed                          ...    0.001 sec

-------------------
DFT GRID GENERATION
-------------------

General Integration Accuracy     IntAcc      ...  4.340
Radial Grid Type                 RadialGrid  ... Gauss-Chebyshev
Angular Grid (max. acc.)         AngularGrid ... Lebedev-110
Angular grid pruning method      GridPruning ... 3 (G Style)
Weight generation scheme         WeightScheme... Becke
Basis function cutoff            BFCut       ...    1.0000e-11
Integration weight cutoff        WCut        ...    1.0000e-14
Grids for H and He will be reduced by one unit

# of grid points (after initial pruning)     ...   3418 (   0.0 sec)
# of grid points (after weights+screening)   ...   3392 (   0.0 sec)
nearest neighbour list constructed           ...    0.0 sec
Grid point re-assignment to atoms done       ...    0.0 sec
Grid point division into batches done        ...    0.0 sec
Reduced shell lists constructed in    0.0 sec

Total number of grid points                  ...     3392
Total number of batches                      ...       54
Average number of points per batch           ...       62
Average number of grid points per atom       ...     1696
Average number of shells per batch           ...    23.47 (83.81%)
Average number of basis functions per batch  ...    76.53 (83.19%)
Average number of large shells per batch     ...    20.93 (89.20%)
Average number of large basis fcns per batch ...    69.20 (90.42%)
Maximum spatial batch extension              ...  13.69, 19.31, 25.65 au
Average spatial batch extension              ...   2.26,  2.47,  2.86 au

Time for grid setup =    0.006 sec

------------------------------
INITIAL GUESS: MODEL POTENTIAL
------------------------------
Loading Hartree-Fock densities                     ... done
Calculating cut-offs                               ... done
Setting up the integral package                    ... done
Initializing the effective Hamiltonian             ... done
Starting the Coulomb interaction                   ... done (   0.0 sec)
Reading the grid                                   ... done
Mapping shells                                     ... done
Starting the XC term evaluation                    ... done (   0.0 sec)
Transforming the Hamiltonian                       ... done (   0.0 sec)
Diagonalizing the Hamiltonian                      ... done (   0.0 sec)
Back transforming the eigenvectors                 ... done (   0.0 sec)
Now organizing SCF variables                       ... done
                      ------------------
                      INITIAL GUESS DONE (   0.1 sec)
                      ------------------
--------------
SCF ITERATIONS
--------------
ITER       Energy         Delta-E        Max-DP      RMS-DP      [F,P]     Damp
               ***  Starting incremental Fock matrix formation  ***
  0   -129.2584760521   0.000000000000 0.01231951  0.00033877  0.2000023 0.7000
  1   -129.2695558665  -0.011079814452 0.00892672  0.00026078  0.1472207 0.7000
                               ***Turning on DIIS***
  2   -129.2776415598  -0.008085693317 0.00640667  0.00019719  0.1077831 0.7000
  3   -129.3498799078  -0.072238347960 0.01736411  0.00056579  0.0785846 0.0000
  4   -129.3020867224   0.047793185415 0.00518339  0.00012815  0.0066658 0.0000
  5   -129.2958156071   0.006271115268 0.00322190  0.00008078  0.0054083 0.0000
  6   -129.2956190173   0.000196589869 0.00210388  0.00005369  0.0029857 0.0000
  7   -129.2988831696  -0.003264152353 0.00109347  0.00003501  0.0025331 0.0000
  8   -129.2983415320   0.000541637573 0.00123980  0.00003323  0.0016526 0.0000
  9   -129.2994327878  -0.001091255786 0.00141517  0.00003355  0.0010732 0.0000
 10   -129.2996112927  -0.000178504873 0.00187053  0.00004109  0.0005531 0.0000
 11   -129.2999068883  -0.000295595629 0.00082151  0.00001783  0.0001351 0.0000
 12   -129.2999438827  -0.000036994393 0.00063258  0.00001386  0.0000688 0.0000
 13   -129.2999293687   0.000014514043 0.00025316  0.00000567  0.0000570 0.0000
 14   -129.2999533241  -0.000023955460 0.00028862  0.00000645  0.0000517 0.0000
 15   -129.2999807939  -0.000027469764 0.00002875  0.00000063  0.0000557 0.0000
 16   -129.2999668193   0.000013974576 0.00018426  0.00000406  0.0000716 0.0000
 17   -129.2999632907   0.000003528603 0.00037572  0.00000839  0.0000616 0.0000
 18   -129.2999770912  -0.000013800446 0.00031831  0.00000715  0.0000623 0.0000
 19   -129.3000155540  -0.000038462813 0.00012800  0.00000284  0.0000697 0.0000
               *** Restarting incremental Fock matrix formation ***
                                   *** Resetting DIIS ***
 20   -129.2999894662   0.000026087730 0.00033656  0.00000768  0.0000706 0.0000
 21   -129.3000075841  -0.000018117847 0.00043903  0.00001000  0.0000940 0.0000
 22   -129.2999955342   0.000012049934 0.00021068  0.00000473  0.0000784 0.0000
 23   -129.3000107994  -0.000015265197 0.00028177  0.00000633  0.0000699 0.0000
 24   -129.3000072097   0.000003589614 0.00023789  0.00000532  0.0000665 0.0000
 25   -129.3000297060  -0.000022496299 0.00036867  0.00000817  0.0000657 0.0000
 26   -129.2999970873   0.000032618721 0.00008942  0.00000199  0.0000694 0.0000
 27   -129.2997228742   0.000274213134 0.00291776  0.00006512  0.0000858 0.0000
 28   -129.3000666309  -0.000343756731 0.00095169  0.00002125  0.0000746 0.0000
 29   -129.2999366649   0.000129966022 0.00098749  0.00002207  0.0000706 0.0000
 30   -129.2998963526   0.000040312284 0.00243067  0.00005436  0.0000742 0.0000
 31   -129.3002457976  -0.000349444988 0.00253576  0.00005668  0.0000915 0.0000
 32   -129.3001199374   0.000125860232 0.00105676  0.00002359  0.0001023 0.0000
 33   -129.2999008078   0.000219129569 0.00118174  0.00002636  0.0000980 0.0000
 34   -129.2999766502  -0.000075842451 0.00070852  0.00001584  0.0000831 0.0000
 35   -129.2999886603  -0.000012010016 0.00096146  0.00002151  0.0000842 0.0000
 36   -129.3000133884  -0.000024728156 0.00094068  0.00002102  0.0000848 0.0000
 37   -129.3000684369  -0.000055048520 0.00049857  0.00001117  0.0000880 0.0000
 38   -129.3002104943  -0.000142057374 0.00306180  0.00006831  0.0000858 0.0000
 39   -129.2998917513   0.000318743048 0.00199703  0.00004456  0.0000940 0.0000
               *** Restarting incremental Fock matrix formation ***
                                   *** Resetting DIIS ***
 40   -129.3000280578  -0.000136306527 0.00020623  0.00000459  0.0000744 0.0000
 41   -129.3000069681   0.000021089722 0.00005219  0.00000119  0.0000912 0.0000
 42   -129.3000188308  -0.000011862698 0.00002607  0.00000059  0.0000892 0.0000
 43   -129.3000150212   0.000003809527 0.00000395  0.00000009  0.0000896 0.0000
 44   -129.3000151870  -0.000000165736 0.00000452  0.00000010  0.0000895 0.0000
 45   -129.3000242109  -0.000009023975 0.00023196  0.00000524  0.0000894 0.0000
 46   -129.3000553450  -0.000031134044 0.00002508  0.00000056  0.0000872 0.0000
 47   -129.3000556254  -0.000000280414 0.00000218  0.00000005  0.0000878 0.0000
 48   -129.3000529674   0.000002658006 0.00002362  0.00000053  0.0000877 0.0000
 49   -129.3000479203   0.000005047115 0.00004298  0.00000096  0.0000883 0.0000
 50   -129.3000322561   0.000015664180 0.00016211  0.00000362  0.0000892 0.0000
 51   -129.3000362736  -0.000004017462 0.00000152  0.00000003  0.0000918 0.0000
 52   -129.3000352126   0.000001060927 0.00003987  0.00000089  0.0000919 0.0000
 53   -129.3000366661  -0.000001453410 0.00007731  0.00000173  0.0000914 0.0000
 54   -129.3000353674   0.000001298681 0.00013795  0.00000308  0.0000909 0.0000
 55   -129.3000283442   0.000007023175 0.00025670  0.00000573  0.0000904 0.0000
 56   -129.3000009209   0.000027423319 0.00070569  0.00001575  0.0000891 0.0000
 57   -129.2998478253   0.000153095550 0.00344689  0.00007702  0.0000842 0.0000
 58   -129.3000922107  -0.000244385348 0.00048074  0.00001074  0.0000710 0.0000
 59   -129.2998899151   0.000202295561 0.00400863  0.00008971  0.0000615 0.0000
               *** Restarting incremental Fock matrix formation ***
                                   *** Resetting DIIS ***
 60   -129.3000407255  -0.000150810360 0.00013715  0.00000319  0.0001011 0.0000
 61   -129.3000550551  -0.000014329632 0.00007364  0.00000156  0.0000816 0.0000
 62   -129.3000395493   0.000015505835 0.00010785  0.00000253  0.0000170 0.0000
 63   -129.3000452581  -0.000005708827 0.00002280  0.00000053  0.0000295 0.0000
 64   -129.3000423471   0.000002910986 0.00000359  0.00000008  0.0000307 0.0000
 65   -129.3000617608  -0.000019413687 0.00001708  0.00000038  0.0000308 0.0000
 66   -129.3000606588   0.000001101957 0.00001640  0.00000038  0.0000303 0.0000
 67   -129.3000424323   0.000018226521 0.00009888  0.00000234  0.0000272 0.0000
 68   -129.3000241575   0.000018274795 0.00004907  0.00000114  0.0000352 0.0000
 69   -129.3000264104  -0.000002252918 0.00002343  0.00000054  0.0000307 0.0000
 70   -129.3000314490  -0.000005038553 0.00002038  0.00000046  0.0000305 0.0000
 71   -129.3000325255  -0.000001076517 0.00001709  0.00000039  0.0000303 0.0000
 72   -129.3000395150  -0.000006989471 0.00004162  0.00000093  0.0000298 0.0000
 73   -129.3000563709  -0.000016855939 0.00024059  0.00000548  0.0000317 0.0000
 74   -129.3000351855   0.000021185467 0.00036687  0.00000834  0.0000393 0.0000
 75   -129.3000490339  -0.000013848440 0.00001415  0.00000031  0.0000302 0.0000
 76   -129.3000419604   0.000007073543 0.00007119  0.00000159  0.0000306 0.0000
 77   -129.3000300586   0.000011901743 0.00015961  0.00000356  0.0000315 0.0000
 78   -129.3000334941  -0.000003435497 0.00004223  0.00000096  0.0000332 0.0000
 79   -129.3000460074  -0.000012513335 0.00058763  0.00001322  0.0000338 0.0000
               *** Restarting incremental Fock matrix formation ***
                                   *** Resetting DIIS ***
 80   -129.3000432179   0.000002789578 0.00011029  0.00000253  0.0000298 0.0000
 81   -129.3000656275  -0.000022409632 0.00003857  0.00000089  0.0000422 0.0000
 82   -129.3000700969  -0.000004469443 0.00004398  0.00000100  0.0000423 0.0000
 83   -129.3000657181   0.000004378885 0.00006731  0.00000153  0.0000402 0.0000
 84   -129.3000615333   0.000004184710 0.00009872  0.00000224  0.0000379 0.0000
 85   -129.3000391865   0.000022346823 0.00001403  0.00000031  0.0000356 0.0000
 86   -129.3000289339   0.000010252572 0.00017858  0.00000404  0.0000353 0.0000
 87   -129.3000577274  -0.000028793416 0.00026830  0.00000606  0.0000387 0.0000
 88   -129.3000467170   0.000011010348 0.00021687  0.00000488  0.0000393 0.0000
 89   -129.3000527914  -0.000006074420 0.00033283  0.00000747  0.0000372 0.0000
 90   -129.3001019341  -0.000049142672 0.00116911  0.00002624  0.0000369 0.0000
 91   -129.3000737856   0.000028148522 0.00062744  0.00001401  0.0000295 0.0000
 92   -129.3001382030  -0.000064417462 0.00131206  0.00002933  0.0000242 0.0000
 93   -129.3000243731   0.000113829981 0.00037046  0.00000832  0.0000270 0.0000
 94   -129.3000467733  -0.000022400249 0.00003064  0.00000072  0.0000049 0.0000
 95   -129.3000440113   0.000002761998 0.00009495  0.00000213  0.0000016 0.0000
 96   -129.3000433422   0.000000669097 0.00009882  0.00000221  0.0000010 0.0000
                            ***DIIS convergence achieved***

               *****************************************************
               *                     SUCCESS                       *
               *           SCF CONVERGED AFTER  97 CYCLES          *
               *****************************************************


----------------
TOTAL SCF ENERGY
----------------

Total Energy       :         -129.30004595 Eh           -3518.43312 eV

Components:
Nuclear Repulsion  :           26.05988839 Eh             709.12561 eV
Electronic Energy  :         -155.35993434 Eh           -4227.55874 eV
One Electron Energy:         -228.29790756 Eh           -6212.30189 eV
Two Electron Energy:           72.93797322 Eh            1984.74315 eV

Virial components:
Potential Energy   :         -258.43125284 Eh           -7032.27190 eV
Kinetic Energy     :          129.13120689 Eh            3513.83878 eV
Virial Ratio       :            2.00130750


---------------
SCF CONVERGENCE
---------------

  Last Energy change         ...   -2.6067e-06  Tolerance :   1.0000e-08
  Last MAX-Density change    ...    6.2454e-05  Tolerance :   1.0000e-07
  Last RMS-Density change    ...    1.3989e-06  Tolerance :   5.0000e-09
  Last DIIS Error            ...    7.2327e-07  Tolerance :   5.0000e-07

             **** THE GBW FILE WAS UPDATED (nitrogen_monoxide_DLPNO-CCSD_aug-cc-pVTZ_SPE.gbw) ****
             **** DENSITY FILE WAS UPDATED (nitrogen_monoxide_DLPNO-CCSD_aug-cc-pVTZ_SPE.scfp) ****
             **** ENERGY FILE WAS UPDATED (nitrogen_monoxide_DLPNO-CCSD_aug-cc-pVTZ_SPE.en.tmp) ****
----------------------
UHF SPIN CONTAMINATION
----------------------

Expectation value of <S**2>     :     0.776273
Ideal value S*(S+1) for S=0.5   :     0.750000
Deviation                       :     0.026273

             **** THE GBW FILE WAS UPDATED (nitrogen_monoxide_DLPNO-CCSD_aug-cc-pVTZ_SPE.gbw) ****
             **** DENSITY FILE WAS UPDATED (nitrogen_monoxide_DLPNO-CCSD_aug-cc-pVTZ_SPE.scfp) ****
----------------
ORBITAL ENERGIES
----------------
                 SPIN UP ORBITALS
  NO   OCC          E(Eh)            E(eV) 
   0   1.0000     -20.703676      -563.3757 
   1   1.0000     -15.732545      -428.1043 
   2   1.0000      -1.628883       -44.3242 
   3   1.0000      -0.968760       -26.3613 
   4   1.0000      -0.796958       -21.6863 
   5   1.0000      -0.703786       -19.1510 
   6   1.0000      -0.658147       -17.9091 
   7   1.0000      -0.421846       -11.4790 
   8   0.0000       0.075273         2.0483 
   9   0.0000       0.084459         2.2983 
  10   0.0000       0.118750         3.2313 
  11   0.0000       0.124766         3.3951 
  12   0.0000       0.134533         3.6608 
  13   0.0000       0.185538         5.0487 
  14   0.0000       0.193235         5.2582 
  15   0.0000       0.206344         5.6149 
  16   0.0000       0.317914         8.6509 
  17   0.0000       0.436245        11.8708 
  18   0.0000       0.436316        11.8728 
  19   0.0000       0.508925        13.8485 
  20   0.0000       0.548698        14.9308 
  21   0.0000       0.555085        15.1046 
  22   0.0000       0.638762        17.3816 
  23   0.0000       0.662580        18.0297 
  24   0.0000       0.677050        18.4235 
  25   0.0000       0.692838        18.8531 
  26   0.0000       0.745148        20.2765 
  27   0.0000       0.745311        20.2809 
  28   0.0000       0.825541        22.4641 
  29   0.0000       0.852610        23.2007 
  30   0.0000       0.888178        24.1686 
  31   0.0000       1.049942        28.5704 
  32   0.0000       1.186940        32.2983 
  33   0.0000       1.205801        32.8115 
  34   0.0000       1.410133        38.3717 
  35   0.0000       1.450919        39.4815 
  36   0.0000       1.450920        39.4815 
  37   0.0000       1.452552        39.5260 
  38   0.0000       1.454174        39.5701 
  39   0.0000       1.586555        43.1724 
  40   0.0000       1.593969        43.3741 
  41   0.0000       1.652393        44.9639 
  42   0.0000       1.652692        44.9720 
  43   0.0000       1.691689        46.0332 
  44   0.0000       1.899499        51.6880 
  45   0.0000       1.944399        52.9098 
  46   0.0000       1.946354        52.9630 
  47   0.0000       2.152871        58.5826 
  48   0.0000       2.152873        58.5826 
  49   0.0000       2.198952        59.8365 
  50   0.0000       2.199091        59.8403 
  51   0.0000       2.434287        66.2403 
  52   0.0000       2.510551        68.3156 
  53   0.0000       2.513643        68.3997 
  54   0.0000       2.692862        73.2765 
  55   0.0000       2.693240        73.2868 
  56   0.0000       2.700968        73.4971 
  57   0.0000       2.720710        74.0343 
  58   0.0000       2.792422        75.9857 
  59   0.0000       3.306031        89.9617 
  60   0.0000       3.709404       100.9380 
  61   0.0000       3.729885       101.4953 
  62   0.0000       4.261461       115.9603 
  63   0.0000       4.578667       124.5919 
  64   0.0000       4.592689       124.9734 
  65   0.0000       4.787103       130.2637 
  66   0.0000       4.787105       130.2637 
  67   0.0000       4.810351       130.8963 
  68   0.0000       4.810387       130.8973 
  69   0.0000       5.013015       136.4111 
  70   0.0000       5.028059       136.8204 
  71   0.0000       5.028187       136.8239 
  72   0.0000       5.041333       137.1816 
  73   0.0000       5.043279       137.2346 
  74   0.0000       5.081724       138.2807 
  75   0.0000       5.620794       152.9496 
  76   0.0000       5.713829       155.4812 
  77   0.0000       5.718324       155.6035 
  78   0.0000       6.441540       175.2832 
  79   0.0000       6.441540       175.2832 
  80   0.0000       6.776926       184.4095 
  81   0.0000       6.776929       184.4096 
  82   0.0000       7.012328       190.8152 
  83   0.0000       7.012413       190.8175 
  84   0.0000       7.387695       201.0294 
  85   0.0000       7.387950       201.0363 
  86   0.0000       7.479956       203.5400 
  87   0.0000       7.487510       203.7455 
  88   0.0000       7.508030       204.3039 
  89   0.0000       7.798176       212.1992 
  90   0.0000      13.332907       362.8068 
  91   0.0000      16.026999       436.1168 

                 SPIN DOWN ORBITALS
  NO   OCC          E(Eh)            E(eV) 
   0   1.0000     -20.691864      -563.0542 
   1   1.0000     -15.701198      -427.2513 
   2   1.0000      -1.590573       -43.2817 
   3   1.0000      -0.885382       -24.0925 
   4   1.0000      -0.663004       -18.0413 
   5   1.0000      -0.656621       -17.8676 
   6   1.0000      -0.618726       -16.8364 
   7   0.0000       0.084978         2.3124 
   8   0.0000       0.086358         2.3499 
   9   0.0000       0.106169         2.8890 
  10   0.0000       0.121989         3.3195 
  11   0.0000       0.147932         4.0254 
  12   0.0000       0.166509         4.5309 
  13   0.0000       0.186296         5.0694 
  14   0.0000       0.208250         5.6668 
  15   0.0000       0.226923         6.1749 
  16   0.0000       0.319600         8.6968 
  17   0.0000       0.442821        12.0498 
  18   0.0000       0.442934        12.0528 
  19   0.0000       0.515649        14.0315 
  20   0.0000       0.553964        15.0741 
  21   0.0000       0.563291        15.3279 
  22   0.0000       0.660408        17.9706 
  23   0.0000       0.687119        18.6975 
  24   0.0000       0.694546        18.8995 
  25   0.0000       0.706118        19.2145 
  26   0.0000       0.746963        20.3259 
  27   0.0000       0.747531        20.3414 
  28   0.0000       0.860403        23.4128 
  29   0.0000       0.882316        24.0090 
  30   0.0000       0.906287        24.6613 
  31   0.0000       1.064728        28.9727 
  32   0.0000       1.200110        32.6567 
  33   0.0000       1.218986        33.1703 
  34   0.0000       1.422122        38.6979 
  35   0.0000       1.460688        39.7473 
  36   0.0000       1.460692        39.7475 
  37   0.0000       1.497356        40.7451 
  38   0.0000       1.497940        40.7610 
  39   0.0000       1.597920        43.4816 
  40   0.0000       1.620938        44.1080 
  41   0.0000       1.659996        45.1708 
  42   0.0000       1.661984        45.2249 
  43   0.0000       1.704349        46.3777 
  44   0.0000       1.909023        51.9472 
  45   0.0000       1.948477        53.0208 
  46   0.0000       1.972424        53.6724 
  47   0.0000       2.155744        58.6608 
  48   0.0000       2.155751        58.6610 
  49   0.0000       2.215710        60.2925 
  50   0.0000       2.215762        60.2939 
  51   0.0000       2.439619        66.3854 
  52   0.0000       2.514014        68.4098 
  53   0.0000       2.534952        68.9795 
  54   0.0000       2.700447        73.4829 
  55   0.0000       2.701630        73.5151 
  56   0.0000       2.729901        74.2844 
  57   0.0000       2.761891        75.1549 
  58   0.0000       2.802148        76.2503 
  59   0.0000       3.329815        90.6089 
  60   0.0000       3.741228       101.8040 
  61   0.0000       3.780379       102.8693 
  62   0.0000       4.283607       116.5629 
  63   0.0000       4.592437       124.9666 
  64   0.0000       4.629169       125.9661 
  65   0.0000       4.829683       131.4224 
  66   0.0000       4.829752       131.4242 
  67   0.0000       4.841891       131.7546 
  68   0.0000       4.842730       131.7774 
  69   0.0000       5.026198       136.7698 
  70   0.0000       5.057921       137.6330 
  71   0.0000       5.089787       138.5002 
  72   0.0000       5.094961       138.6409 
  73   0.0000       5.095156       138.6463 
  74   0.0000       5.108079       138.9979 
  75   0.0000       5.633917       153.3067 
  76   0.0000       5.717201       155.5730 
  77   0.0000       5.750783       156.4868 
  78   0.0000       6.453617       175.6119 
  79   0.0000       6.453623       175.6120 
  80   0.0000       6.788368       184.7209 
  81   0.0000       6.788417       184.7222 
  82   0.0000       7.036923       191.4844 
  83   0.0000       7.036963       191.4855 
  84   0.0000       7.384538       200.9435 
  85   0.0000       7.418940       201.8796 
  86   0.0000       7.480454       203.5535 
  87   0.0000       7.512344       204.4213 
  88   0.0000       7.516225       204.5269 
  89   0.0000       7.806544       212.4269 
  90   0.0000      13.352210       363.3321 
  91   0.0000      16.039566       436.4588 

                    ********************************
                    * MULLIKEN POPULATION ANALYSIS *
                    ********************************

--------------------------------------------
MULLIKEN ATOMIC CHARGES AND SPIN POPULATIONS
--------------------------------------------
   0 N :    0.138614    0.866875
   1 O :   -0.138614    0.133125
Sum of atomic charges         :   -0.0000000
Sum of atomic spin populations:    1.0000000

-----------------------------------------------------
MULLIKEN REDUCED ORBITAL CHARGES AND SPIN POPULATIONS
-----------------------------------------------------
CHARGE
  0 N s       :     3.929014  s :     3.929014
      pz      :     0.622661  p :     2.836946
      px      :     0.993784
      py      :     1.220501
      dz2     :     0.002713  d :     0.079507
      dxz     :     0.030866
      dyz     :     0.000000
      dx2y2   :     0.013498
      dxy     :     0.032431
      f0      :     0.000951  f :     0.015919
      f+1     :     0.001142
      f-1     :     0.000109
      f+2     :     0.003305
      f-2     :     0.000000
      f+3     :     0.002779
      f-3     :     0.007633
  1 O s       :     3.822063  s :     3.822063
      pz      :     1.309702  p :     4.233682
      px      :     1.217362
      py      :     1.706618
      dz2     :     0.002812  d :     0.074556
      dxz     :     0.029721
      dyz     :     0.000000
      dx2y2   :     0.012854
      dxy     :     0.029169
      f0      :     0.000670  f :     0.008313
      f+1     :     0.000522
      f-1     :     0.000021
      f+2     :     0.002123
      f-2     :     0.000000
      f+3     :     0.001457
      f-3     :     0.003519

SPIN
  0 N s       :     0.012001  s :     0.012001
      pz      :     0.116586  p :     0.853064
      px      :    -0.002569
      py      :     0.739047
      dz2     :    -0.001264  d :     0.001867
      dxz     :     0.000589
      dyz     :     0.000000
      dx2y2   :     0.002952
      dxy     :    -0.000410
      f0      :     0.000080  f :    -0.000057
      f+1     :    -0.000095
      f-1     :     0.000230
      f+2     :    -0.001055
      f-2     :    -0.000000
      f+3     :    -0.000072
      f-3     :     0.000856
  1 O s       :     0.007000  s :     0.007000
      pz      :    -0.118474  p :     0.118504
      px      :    -0.021301
      py      :     0.258279
      dz2     :    -0.000573  d :     0.006609
      dxz     :     0.002074
      dyz     :     0.000000
      dx2y2   :     0.003674
      dxy     :     0.001435
      f0      :     0.000211  f :     0.001011
      f+1     :     0.000082
      f-1     :     0.000074
      f+2     :    -0.000011
      f-2     :    -0.000000
      f+3     :     0.000166
      f-3     :     0.000489


                     *******************************
                     * LOEWDIN POPULATION ANALYSIS *
                     *******************************

-------------------------------------------
LOEWDIN ATOMIC CHARGES AND SPIN POPULATIONS
-------------------------------------------
   0 N :   -0.065757    0.705378
   1 O :    0.065757    0.294622

----------------------------------------------------
LOEWDIN REDUCED ORBITAL CHARGES AND SPIN POPULATIONS
----------------------------------------------------
CHARGE
  0 N s       :     3.306669  s :     3.306669
      pz      :     0.639483  p :     3.017461
      px      :     1.309634
      py      :     1.068344
      dz2     :     0.050410  d :     0.502711
      dxz     :     0.102140
      dyz     :     0.000000
      dx2y2   :     0.156317
      dxy     :     0.193844
      f0      :     0.021608  f :     0.238916
      f+1     :     0.030104
      f-1     :     0.005721
      f+2     :     0.038035
      f-2     :     0.000000
      f+3     :     0.050648
      f-3     :     0.092801
  1 O s       :     3.374314  s :     3.374314
      pz      :     1.134126  p :     4.073805
      px      :     1.502487
      py      :     1.437192
      dz2     :     0.042966  d :     0.363201
      dxz     :     0.043906
      dyz     :     0.000000
      dx2y2   :     0.132255
      dxy     :     0.144074
      f0      :     0.007363  f :     0.122924
      f+1     :     0.016529
      f-1     :     0.003426
      f+2     :     0.013339
      f-2     :     0.000000
      f+3     :     0.027669
      f-3     :     0.054597

SPIN
  0 N s       :     0.011804  s :     0.011804
      pz      :     0.087446  p :     0.608686
      px      :    -0.010587
      py      :     0.531827
      dz2     :    -0.000404  d :     0.062794
      dxz     :    -0.013012
      dyz     :     0.000000
      dx2y2   :     0.003781
      dxy     :     0.072429
      f0      :    -0.002474  f :     0.022093
      f+1     :     0.000943
      f-1     :     0.002034
      f+2     :    -0.005478
      f-2     :     0.000000
      f+3     :    -0.000417
      f-3     :     0.027483
  1 O s       :     0.001820  s :     0.001820
      pz      :    -0.082211  p :     0.112379
      px      :    -0.015142
      py      :     0.209732
      dz2     :     0.001596  d :     0.130370
      dxz     :     0.010766
      dyz     :     0.000000
      dx2y2   :     0.005057
      dxy     :     0.112951
      f0      :     0.002016  f :     0.050053
      f+1     :     0.001319
      f-1     :     0.002776
      f+2     :     0.002945
      f-2     :     0.000000
      f+3     :     0.000229
      f-3     :     0.040768


                      *****************************
                      * MAYER POPULATION ANALYSIS *
                      *****************************

  NA   - Mulliken gross atomic population
  ZA   - Total nuclear charge
  QA   - Mulliken gross atomic charge
  VA   - Mayer's total valence
  BVA  - Mayer's bonded valence
  FA   - Mayer's free valence

  ATOM       NA         ZA         QA         VA         BVA        FA
  0 N      6.8614     7.0000     0.1386     2.5245     1.9041     0.6203
  1 O      8.1386     8.0000    -0.1386     2.0342     1.9041     0.1301

  Mayer bond orders larger than 0.100000
B(  0-N ,  1-O ) :   1.9041 


                ***UHF Natural Orbitals were saved in nitrogen_monoxide_DLPNO-CCSD_aug-cc-pVTZ_SPE.unso***


                ***UHF Natural Orbitals were saved in nitrogen_monoxide_DLPNO-CCSD_aug-cc-pVTZ_SPE.uno***

QR-MO GENERATION
 Dim     =   92
 Mult    =    2
 NEl     =   15
 N(DOMO) =    7
 N(SOMO) =    1
 N(VMO)  =   84


                ***Quasi-Restricted Orbitals were saved in nitrogen_monoxide_DLPNO-CCSD_aug-cc-pVTZ_SPE.qro***

Orbital Energies of Quasi-Restricted MO's
   0( 2) :   -20.691849 a.u.  -563.054 eV
   1( 2) :   -15.701193 a.u.  -427.251 eV
   2( 2) :    -1.590162 a.u.   -43.270 eV
   3( 2) :    -0.884129 a.u.   -24.058 eV
   4( 2) :    -0.660095 a.u.   -17.962 eV
   5( 2) :    -0.655727 a.u.   -17.843 eV
   6( 2) :    -0.615634 a.u.   -16.752 eV
   7( 1) :    -0.115301 a.u.    -3.137 eV alpha=  -11.686 beta=    5.411
   8( 0) :     0.073496 a.u.     2.000 eV
   9( 0) :     0.084450 a.u.     2.298 eV
  10( 0) :     0.118630 a.u.     3.228 eV
  11( 0) :     0.124447 a.u.     3.386 eV
  12( 0) :     0.134179 a.u.     3.651 eV
  13( 0) :     0.185526 a.u.     5.048 eV
  14( 0) :     0.193164 a.u.     5.256 eV
  15( 0) :     0.206010 a.u.     5.606 eV
  16( 0) :     0.317876 a.u.     8.650 eV
  17( 0) :     0.436198 a.u.    11.870 eV
  18( 0) :     0.436248 a.u.    11.871 eV
  19( 0) :     0.508681 a.u.    13.842 eV
  20( 0) :     0.548482 a.u.    14.925 eV
  21( 0) :     0.555034 a.u.    15.103 eV
  22( 0) :     0.638304 a.u.    17.369 eV
  23( 0) :     0.661946 a.u.    18.012 eV
  24( 0) :     0.677016 a.u.    18.423 eV
  25( 0) :     0.692823 a.u.    18.853 eV
  26( 0) :     0.745147 a.u.    20.276 eV
  27( 0) :     0.745253 a.u.    20.279 eV
  28( 0) :     0.825333 a.u.    22.458 eV
  29( 0) :     0.852498 a.u.    23.198 eV
  30( 0) :     0.888107 a.u.    24.167 eV
  31( 0) :     1.049766 a.u.    28.566 eV
  32( 0) :     1.185979 a.u.    32.272 eV
  33( 0) :     1.205771 a.u.    32.811 eV
  34( 0) :     1.410065 a.u.    38.370 eV
  35( 0) :     1.450918 a.u.    39.481 eV
  36( 0) :     1.450919 a.u.    39.482 eV
  37( 0) :     1.452564 a.u.    39.526 eV
  38( 0) :     1.453854 a.u.    39.561 eV
  39( 0) :     1.586416 a.u.    43.169 eV
  40( 0) :     1.593969 a.u.    43.374 eV
  41( 0) :     1.652334 a.u.    44.962 eV
  42( 0) :     1.652692 a.u.    44.972 eV
  43( 0) :     1.691624 a.u.    46.031 eV
  44( 0) :     1.899430 a.u.    51.686 eV
  45( 0) :     1.944142 a.u.    52.903 eV
  46( 0) :     1.946351 a.u.    52.963 eV
  47( 0) :     2.152869 a.u.    58.583 eV
  48( 0) :     2.152870 a.u.    58.583 eV
  49( 0) :     2.198883 a.u.    59.835 eV
  50( 0) :     2.198940 a.u.    59.836 eV
  51( 0) :     2.434268 a.u.    66.240 eV
  52( 0) :     2.510546 a.u.    68.315 eV
  53( 0) :     2.513636 a.u.    68.400 eV
  54( 0) :     2.692824 a.u.    73.275 eV
  55( 0) :     2.693238 a.u.    73.287 eV
  56( 0) :     2.700763 a.u.    73.491 eV
  57( 0) :     2.720702 a.u.    74.034 eV
  58( 0) :     2.792400 a.u.    75.985 eV
  59( 0) :     3.305990 a.u.    89.961 eV
  60( 0) :     3.709316 a.u.   100.936 eV
  61( 0) :     3.729884 a.u.   101.495 eV
  62( 0) :     4.261390 a.u.   115.958 eV
  63( 0) :     4.578563 a.u.   124.589 eV
  64( 0) :     4.592674 a.u.   124.973 eV
  65( 0) :     4.787101 a.u.   130.264 eV
  66( 0) :     4.787104 a.u.   130.264 eV
  67( 0) :     4.810359 a.u.   130.897 eV
  68( 0) :     4.810378 a.u.   130.897 eV
  69( 0) :     5.013005 a.u.   136.411 eV
  70( 0) :     5.027906 a.u.   136.816 eV
  71( 0) :     5.028195 a.u.   136.824 eV
  72( 0) :     5.041330 a.u.   137.182 eV
  73( 0) :     5.043287 a.u.   137.235 eV
  74( 0) :     5.081707 a.u.   138.280 eV
  75( 0) :     5.620766 a.u.   152.949 eV
  76( 0) :     5.713824 a.u.   155.481 eV
  77( 0) :     5.718319 a.u.   155.603 eV
  78( 0) :     6.441521 a.u.   175.283 eV
  79( 0) :     6.441522 a.u.   175.283 eV
  80( 0) :     6.776907 a.u.   184.409 eV
  81( 0) :     6.776923 a.u.   184.409 eV
  82( 0) :     7.012307 a.u.   190.815 eV
  83( 0) :     7.012325 a.u.   190.815 eV
  84( 0) :     7.387687 a.u.   201.029 eV
  85( 0) :     7.387935 a.u.   201.036 eV
  86( 0) :     7.479950 a.u.   203.540 eV
  87( 0) :     7.487505 a.u.   203.745 eV
  88( 0) :     7.508023 a.u.   204.304 eV
  89( 0) :     7.798165 a.u.   212.199 eV
  90( 0) :    13.332903 a.u.   362.807 eV
  91( 0) :    16.026992 a.u.   436.117 eV
-------
TIMINGS
-------

Total SCF time: 0 days 0 hours 0 min 24 sec 

Total time                  ....      24.106 sec
Sum of individual times     ....      23.900 sec  ( 99.1%)

Fock matrix formation       ....      23.565 sec  ( 97.8%)
Diagonalization             ....       0.169 sec  (  0.7%)
Density matrix formation    ....       0.010 sec  (  0.0%)
Population analysis         ....       0.007 sec  (  0.0%)
Initial guess               ....       0.071 sec  (  0.3%)
Orbital Transformation      ....       0.000 sec  (  0.0%)
Orbital Orthonormalization  ....       0.000 sec  (  0.0%)
DIIS solution               ....       0.072 sec  (  0.3%)


           ************************************************************
           *        Program running with 4 parallel MPI-processes     *
           *              working on a common directory               *
           ************************************************************


------------------------------------------------------------------------------- 
                              ORCA-MATRIX DRIVEN CI                            
------------------------------------------------------------------------------- 


Wavefunction type
-----------------
Correlation treatment                      ...      CCSD     
Single excitations                         ... ON
Orbital optimization                       ... OFF
Calculation of Z vector                    ... OFF
Calculation of Brueckner orbitals          ... OFF
Perturbative triple excitations            ... OFF
Calculation of F12 correction              ... OFF
Frozen core treatment                      ... chemical core (4 el)
Reference Wavefunction                     ... UHF
  Alpha-MOs occ    :     2 ...    7 (  6 MO's/  6 electrons)
  Beta-MOs occ     :     2 ...    6 (  5 MO's/  5 electrons)
  Alpha-MOs virt   :     8 ...   91 ( 84 MO's              )
  Beta-MOs virt    :     7 ...   91 ( 85 MO's              )
  Quasi restricted orbitals will be used (this is similar to a ROHF determinant)
Number of AO's                             ...     92
Number of electrons                        ...     15
Number of correlated electrons             ...     11

Algorithmic settings
--------------------
Integral transformation                    ... All integrals via the RI transformation
RHF integral transformation will be used
K(C) Formation                             ... RI-DLPNO
   PNO-Integral Storage                    ... ON DISK
   PNO occupation number cut-off           ... 3.330e-07
   Singles PNO occupation number cut-off   ... 9.990e-09
   PNO Mulliken prescreening cut-off       ... 1.000e-03
   Domain cut-off (Mulliken population)    ... 1.000e-03
   PNO Normalization                       ...    1
Maximum number of iterations               ...        50
Convergence tolerance (max. residuum)      ... 1.000e-05
Level shift for amplitude update           ... 2.000e-01
Maximum number of DIIS vectors             ...         7
DIIS turned on at iteration                ...         0
Damping before turning on DIIS             ...     0.500
Damping after turning on DIIS              ...     0.000
Pair specific amplitude update             ... OFF
Natural orbital iterations                 ... OFF
Perturbative natural orbital generation    ... OFF
Printlevel                                 ... 2

Singles Fock matrix elements calculated using PNOs.

Memory handling:
----------------
Maximum memory for working arrays          ...    512 MB
Data storage in matrix containers          ... UNCOMPRESSED
Data type for integral storage             ... DOUBLE
In-Core Storage of quantities:
   Amplitudes+Sigma Vector      ... NO
   J+K operators                ... NO
   DIIS vectors                 ... NO
   3-external integrals         ... NO
   4-external integrals         ... NO

Localization treatment:
-----------------------
Localization option                        ...    6
Localization threshhold                    ... -1.0e+00
Using relative localization threshhold     ... 1.0e-08
Neglect threshold for strong pairs         ... 1.000e-04 Eh
Prescreening threshold for very weak pairs ... 1.000e-06 Eh

Initializing the integral package          ... done
Localizing the QROs
------------------------------------------------------------------------------
                           ORCA ORBITAL LOCALIZATION
------------------------------------------------------------------------------

Input orbitals are from                  ... nitrogen_monoxide_DLPNO-CCSD_aug-cc-pVTZ_SPE.qro
Output orbitals are to                   ... nitrogen_monoxide_DLPNO-CCSD_aug-cc-pVTZ_SPE.loc
Max. number of iterations                ... 128
Localizations seeded randomly            ... off
Convergence tolerance                    ... 1.000e-06
Using relative localization threshhold   ... 1.000e-08
Treshold for strong local MOs            ... 9.500e-01
Treshold for bond MOs                    ... 8.500e-01
Operator                                 ... 0
Orbital range for localization           ... 2 to 6
Localization criterion                   ... FOSTER-BOYS (AUGMENTED HESSIAN)
Doing the dipole integrals     ... o.k.
Initial value of the localization sum : 15879.229869
ITERATION   0 : L=15881.1822312265 DL=  1.95e+00 (AVERGE_DL)=    0.4418554099 
ITERATION   1 : L=15882.0223593693 DL=  8.40e-01 (AVERGE_DL)=    0.2898496408 
ITERATION   2 : L=15882.1686734532 DL=  1.46e-01 (AVERGE_DL)=    0.1209603587 
ITERATION   3 : L=15882.1715468172 DL=  2.87e-03 (AVERGE_DL)=    0.0169510000 
ITERATION   4 : L=15882.1717603271 DL=  2.14e-04 (AVERGE_DL)=    0.0046207130 
ITERATION   5 : L=15882.1717810903 DL=  2.08e-05 (AVERGE_DL)=    0.0014409431 
ITERATION   6 : L=15882.1717832139 DL=  2.12e-06 (AVERGE_DL)=    0.0004608252 
ITERATION   7 : L=15882.1717838589 DL=  6.45e-07 (AVERGE_DL)=    0.0002539757 
LOCALIZATION SUM CONVERGED

------------------------------------------------------
AUGMENTED HESSIAN OPTIMIZATION OF FOSTER-BOYS ORBITALS
------------------------------------------------------

Spin operator:           0
Orbital window:          2 to 6
Number of iterations:    128
Gradient tolerance:      1.000e-06
Number of pairs:         10
Davidson threshold:      2000
Diagonalization method:  LAPACK
Iter:    0   L: 15882.1717838589   Grad. norm: 1.053766e-03
   *** Likely close to a maximum now. ***
       Augmented Hessian eigenvalues:  1.80e-05 -2.20e-02 -1.45e+00 -2.10e+00 ... 
Iter:    1   L: 15882.1717927635   Grad. norm: 2.843982e-04
Iter:    2   L: 15882.1717927850   Grad. norm: 4.804807e-08
LOCALIZATION HAS CONVERGED.

Eigenvalues of the Hessian:
  0 -2.243e-02
  1 -1.453e+00
  2 -2.103e+00
  3 -4.460e+00
  4 -5.907e+00
  5 -7.839e+00
  6 -1.487e+01
  7 -1.544e+01
  8 -1.742e+01
  9 -4.400e+01


------------------------------------------------------------------------------- 
                    LOCALIZED MOLECULAR ORBITAL COMPOSITIONS                   
------------------------------------------------------------------------------- 

The Mulliken populations for each LMO on each atom are computed
The LMO`s will be ordered according to atom index and type
  (A) Strongly localized MO`s have populations of >=0.950 on one atom
  (B) Two center bond orbitals have populations of >=0.850 on two atoms
  (C) Other MO`s are considered to be `delocalized`

FOUND  -   2 strongly local MO`s
       -   3 two center bond MO`s
       -   0 significantly delocalized MO`s

Rather strongly localized orbitals:
MO   3:   1O  -   1.003379
MO   2:   0N  -   1.041709
Bond-like localized orbitals:
MO   6:   1O  -   0.643116  and   0N  -   0.356884
MO   5:   1O  -   0.694568  and   0N  -   0.305432
MO   4:   1O  -   0.643115  and   0N  -   0.356885
Localized MO's were stored in: nitrogen_monoxide_DLPNO-CCSD_aug-cc-pVTZ_SPE.loc

------------------------------------------------------------------------------
                           ORCA ORBITAL LOCALIZATION
------------------------------------------------------------------------------

Input orbitals are from                  ... nitrogen_monoxide_DLPNO-CCSD_aug-cc-pVTZ_SPE.loc
Output orbitals are to                   ... nitrogen_monoxide_DLPNO-CCSD_aug-cc-pVTZ_SPE.loc
Max. number of iterations                ... 128
Localizations seeded randomly            ... off
Convergence tolerance                    ... 1.000e-06
Using relative localization threshhold   ... 1.000e-08
Treshold for strong local MOs            ... 9.500e-01
Treshold for bond MOs                    ... 8.500e-01
Operator                                 ... 0
Orbital range for localization           ... 7 to 7
Localization criterion                   ... FOSTER-BOYS (AUGMENTED HESSIAN)
Doing the dipole integrals     ... o.k.

ORCA_LOC: ONLY ONE ORBITAL - SKIPPING LOCALIZATION


------------------------------------------------------------------------------- 
                    LOCALIZED MOLECULAR ORBITAL COMPOSITIONS                   
------------------------------------------------------------------------------- 

The Mulliken populations for each LMO on each atom are computed
The LMO`s will be ordered according to atom index and type
  (A) Strongly localized MO`s have populations of >=0.950 on one atom
  (B) Two center bond orbitals have populations of >=0.850 on two atoms
  (C) Other MO`s are considered to be `delocalized`

FOUND  -   0 strongly local MO`s
       -   1 two center bond MO`s
       -   0 significantly delocalized MO`s

Bond-like localized orbitals:
MO   7:   1O  -   0.256686  and   0N  -   0.743314
Localized MO's were stored in: nitrogen_monoxide_DLPNO-CCSD_aug-cc-pVTZ_SPE.loc

Localizing the core orbitals
------------------------------------------------------------------------------
                           ORCA ORBITAL LOCALIZATION
------------------------------------------------------------------------------

Input orbitals are from                  ... nitrogen_monoxide_DLPNO-CCSD_aug-cc-pVTZ_SPE.loc
Output orbitals are to                   ... nitrogen_monoxide_DLPNO-CCSD_aug-cc-pVTZ_SPE.loc
Max. number of iterations                ... 128
Localizations seeded randomly            ... off
Convergence tolerance                    ... 1.000e-06
Using relative localization threshhold   ... 1.000e-08
Treshold for strong local MOs            ... 9.500e-01
Treshold for bond MOs                    ... 8.500e-01
Operator                                 ... 0
Orbital range for localization           ... 0 to 1
Localization criterion                   ... FOSTER-BOYS (AUGMENTED HESSIAN)
Doing the dipole integrals     ... o.k.
Initial value of the localization sum :  6387.676355
ITERATION   0 : L= 6387.6763589927 DL=  3.50e-06 (AVERGE_DL)=    0.0018709183 
ITERATION   1 : L= 6387.6763589927 DL=  0.00e+00 (AVERGE_DL)=    0.0000000000 
LOCALIZATION SUM CONVERGED

------------------------------------------------------
AUGMENTED HESSIAN OPTIMIZATION OF FOSTER-BOYS ORBITALS
------------------------------------------------------

Spin operator:           0
Orbital window:          0 to 1
Number of iterations:    128
Gradient tolerance:      1.000e-06
Number of pairs:         1
Davidson threshold:      2000
Diagonalization method:  LAPACK
Iter:    0   L: 6387.6763589927   Grad. norm: 1.192353e-16
   *** Likely close to a maximum now. ***
       Augmented Hessian eigenvalues:  7.70e-34 -1.85e+01
Iter:    1   L: 6387.6763589927   Grad. norm: 5.427334e-30
LOCALIZATION HAS CONVERGED.

Eigenvalues of the Hessian:
  0 -1.845e+01


------------------------------------------------------------------------------- 
                    LOCALIZED MOLECULAR ORBITAL COMPOSITIONS                   
------------------------------------------------------------------------------- 

The Mulliken populations for each LMO on each atom are computed
The LMO`s will be ordered according to atom index and type
  (A) Strongly localized MO`s have populations of >=0.950 on one atom
  (B) Two center bond orbitals have populations of >=0.850 on two atoms
  (C) Other MO`s are considered to be `delocalized`

FOUND  -   2 strongly local MO`s
       -   0 two center bond MO`s
       -   0 significantly delocalized MO`s

Rather strongly localized orbitals:
MO   1:   1O  -   0.999892
MO   0:   0N  -   0.999790
Localized MO's were stored in: nitrogen_monoxide_DLPNO-CCSD_aug-cc-pVTZ_SPE.loc

Re-Reading QRO orbitals for the actual calculation
  ... duplicating orbitals and energies 
  ... adjusting occupation numbers
Warning: reference  - re-canonicalizations have been set to INT 1 VIRT 1
Warning: internal orbitals are localized - no re-canonicalization of internal orbitals
Warning: UsePNO is turned on - no re-canonicalization of internal and virtual orbitals

--------------
DLPNO SETTINGS
--------------

TCutMKN:           1.000e-03
TCutPAO:           1.000e-03
TCutPNO:           3.330e-07
TCutPNOSingles:    9.990e-09
TCutPAOExt:        1.000e-01
TCutPairs:         1.000e-04
TCutPre:           1.000e-06
TCutDOij:          1.000e-05
PAO overlap thresh 1.000e-08
Number of singly-occupied orbitals: 1
Using PNOs for Singles Fock computation
--------------------------
Reading one-electron matrix from nitrogen_monoxide_DLPNO-CCSD_aug-cc-pVTZ_SPE.H.tmp ...done
<ss|ss>:         1540 b            0 skpd (  0.0%)    0.002 s ( 0.001 ms/b)
<ss|sp>:         4400 b            0 skpd (  0.0%)    0.005 s ( 0.001 ms/b)
<ss|sd>:         3300 b            0 skpd (  0.0%)    0.003 s ( 0.001 ms/b)
<ss|sf>:         2200 b            0 skpd (  0.0%)    0.003 s ( 0.001 ms/b)
<ss|pp>:         1980 b            0 skpd (  0.0%)    0.001 s ( 0.001 ms/b)
<ss|pd>:         2640 b            0 skpd (  0.0%)    0.002 s ( 0.001 ms/b)
<ss|pf>:         1760 b            0 skpd (  0.0%)    0.002 s ( 0.001 ms/b)
<ss|dd>:         1155 b            0 skpd (  0.0%)    0.001 s ( 0.001 ms/b)
<ss|df>:         1320 b            0 skpd (  0.0%)    0.001 s ( 0.001 ms/b)
<ss|ff>:          550 b            0 skpd (  0.0%)    0.001 s ( 0.002 ms/b)
<sp|sp>:         3240 b            0 skpd (  0.0%)    0.002 s ( 0.001 ms/b)
<sp|sd>:         4800 b            0 skpd (  0.0%)    0.003 s ( 0.001 ms/b)
<sp|sf>:         3200 b            0 skpd (  0.0%)    0.003 s ( 0.001 ms/b)
<sp|pp>:         2880 b            0 skpd (  0.0%)    0.002 s ( 0.001 ms/b)
<sp|pd>:         3840 b            0 skpd (  0.0%)    0.003 s ( 0.001 ms/b)
<sp|pf>:         2560 b            0 skpd (  0.0%)    0.003 s ( 0.001 ms/b)
<sp|dd>:         1680 b            0 skpd (  0.0%)    0.002 s ( 0.001 ms/b)
<sp|df>:         1920 b            0 skpd (  0.0%)    0.003 s ( 0.001 ms/b)
<sp|ff>:          800 b            0 skpd (  0.0%)    0.002 s ( 0.002 ms/b)
<sd|sd>:         1830 b            0 skpd (  0.0%)    0.002 s ( 0.001 ms/b)
<sd|sf>:         2400 b            0 skpd (  0.0%)    0.007 s ( 0.003 ms/b)
<sd|pp>:         2160 b            0 skpd (  0.0%)    0.002 s ( 0.001 ms/b)
<sd|pd>:         2880 b            0 skpd (  0.0%)    0.003 s ( 0.001 ms/b)
<sd|pf>:         1920 b            0 skpd (  0.0%)    0.003 s ( 0.002 ms/b)
<sd|dd>:         1260 b            0 skpd (  0.0%)    0.002 s ( 0.002 ms/b)
<sd|df>:         1440 b            0 skpd (  0.0%)    0.004 s ( 0.003 ms/b)
<sd|ff>:          600 b            0 skpd (  0.0%)    0.003 s ( 0.005 ms/b)
<sf|sf>:          820 b            0 skpd (  0.0%)    0.003 s ( 0.004 ms/b)
<sf|pp>:         1440 b            0 skpd (  0.0%)    0.003 s ( 0.002 ms/b)
<sf|pd>:         1920 b            0 skpd (  0.0%)    0.004 s ( 0.002 ms/b)
<sf|pf>:         1280 b            0 skpd (  0.0%)    0.005 s ( 0.004 ms/b)
<sf|dd>:          840 b            0 skpd (  0.0%)    0.003 s ( 0.003 ms/b)
<sf|df>:          960 b            0 skpd (  0.0%)    0.005 s ( 0.005 ms/b)
<sf|ff>:          400 b            0 skpd (  0.0%)    0.004 s ( 0.011 ms/b)
<pp|pp>:          666 b            0 skpd (  0.0%)    0.001 s ( 0.001 ms/b)
<pp|pd>:         1728 b            0 skpd (  0.0%)    0.002 s ( 0.001 ms/b)
<pp|pf>:         1152 b            0 skpd (  0.0%)    0.002 s ( 0.002 ms/b)
<pp|dd>:          756 b            0 skpd (  0.0%)    0.002 s ( 0.002 ms/b)
<pp|df>:          864 b            0 skpd (  0.0%)    0.002 s ( 0.003 ms/b)
<pp|ff>:          360 b            0 skpd (  0.0%)    0.002 s ( 0.005 ms/b)
<pd|pd>:         1176 b            0 skpd (  0.0%)    0.003 s ( 0.002 ms/b)
<pd|pf>:         1536 b            0 skpd (  0.0%)    0.005 s ( 0.003 ms/b)
<pd|dd>:         1008 b            0 skpd (  0.0%)    0.004 s ( 0.004 ms/b)
<pd|df>:         1152 b            0 skpd (  0.0%)    0.006 s ( 0.005 ms/b)
<pd|ff>:          480 b            0 skpd (  0.0%)    0.005 s ( 0.010 ms/b)
<pf|pf>:          528 b            0 skpd (  0.0%)    0.003 s ( 0.005 ms/b)
<pf|dd>:          672 b            0 skpd (  0.0%)    0.004 s ( 0.006 ms/b)
<pf|df>:          768 b            0 skpd (  0.0%)    0.007 s ( 0.009 ms/b)
<pf|ff>:          320 b            0 skpd (  0.0%)    0.006 s ( 0.018 ms/b)
<dd|dd>:          231 b            0 skpd (  0.0%)    0.002 s ( 0.007 ms/b)
<dd|df>:          504 b            0 skpd (  0.0%)    0.005 s ( 0.010 ms/b)
<dd|ff>:          210 b            0 skpd (  0.0%)    0.004 s ( 0.018 ms/b)
<df|df>:          300 b            0 skpd (  0.0%)    0.005 s ( 0.018 ms/b)
<df|ff>:          240 b            0 skpd (  0.0%)    0.008 s ( 0.032 ms/b)
<ff|ff>:           55 b            0 skpd (  0.0%)    0.003 s ( 0.064 ms/b)
Reference energy                           ...   -129.292368630
Calculating differential overlap integrals (occ,PAO) ... ok
 >> Construction of the PNO with the Koopmans (K)-matrix << 
Entering the RI transformation section

-----------------
RI-TRANSFORMATION (AUX index driven)
-----------------

Dimension of the orbital-basis         ... 92
Dimension of the aux-basis             ... 212
Transformation of internal MOs         ...    7-   7
Number Format for Storage              ... Double (8 Byte)
Integral mode                          ... Direct

First Phase: integral generation and transformation of MO indices
  Aux angular momentum 0               ... done (    0.001 sec)
  Aux angular momentum 1               ... done (    0.001 sec)
  Aux angular momentum 2               ... done (    0.001 sec)
  Aux angular momentum 3               ... done (    0.001 sec)
  Aux angular momentum 4               ... done (    0.001 sec)
Closing buffer VIJ ( 0.00 GB; CompressionRatio= 0.40)
  Phase 1 completed in     0.070 sec
Second Phase: sorting and transformation of aux index

IJ-Transformation
Memory available                       ... 512 MB 
Max. # MO pairs treated in a batch     ... 1    
# of internal orbitals                 ... 1
# batches for internal orbitals        ... 1
Closing buffer IJV ( 0.00 GB; CompressionRatio= 0.99)
(ij|v) transformation done in     0.000 sec

  Phase 2 completed in     0.001 sec
RI-Integral transformation completed in     0.072 sec

-----------------------
RI-FORMATION OF (ij|kl)
-----------------------

Max core memory to be used            ... 512 MB
Memory needed per MO pair             ...   0.0 MB
# of MO pairs included in trafo       ... 1
# of MO pairs treated in a batch      ... 1
# of batches needed                   ... 1
Data format used                      ... DOUBLE
 done (    0.000 sec)
Closing buffer JIJ ( 0.00 GB; CompressionRatio= 0.40)
(ij|kl) transformation completed in     0.000 sec
     ... leaving the RI transformation section
 >> 4-active ERIs are generated & stored in-core fast memory 
 >> End construction..
F12 correction will NOT be calculated
 >>>>>>>>>>>>>>>>>>>>>>>>>>>>>>>>>>>>> 
       Dipole-based Prescreening       
 <<<<<<<<<<<<<<<<<<<<<<<<<<<<<<<<<<<<< 
Threshold for domain construction in prescreening:
   TCutDO    ...     1.0e-02
--------------------------
ELECTRON PAIR PRESCREENING
--------------------------

PAO based multipole pair screening          .... used
   TCutDOij = 1.000000e-05
   TCutPre  = 1.000000e-06
 done

sum of pair energies estimated for screened out pairs ...       0.000000000000 Eh
                                                           
  __   __        __   ___     __        ___  __   __       
 /  ` |__) |  | |  \ |__     / _` |  | |__  /__` /__`     
 \__, |  \ \__/ |__/ |___    \__> \__/ |___ .__/ .__/ 
                                                           

Parameters for the crude guess:
   TScaleDOMP2PreScr   : 2.000e+00
   TScaleMKNMP2PreScr  : 1.000e+01
   TScalePNOMP2PreScr  : 1.000e+00
   TScalePairsMP2PreScr: 1.000e+00
   PAO overlap thresh    1.000e-08
Thresholds for map construction and integral transformation for crude MP2:
   TCutMKN                    ...     1.0e-02
   TCutDO                     ...     2.0e-02
   TCutPairs                  ...     1.0e-04
   TCutPairs_CrudeMP2         ...     1.0e-04
   TCutPNO_CrudeMP2           ...     3.3e-07
   TCutPNOSingles_CrudeMP2    ...     1.0e-08

CRUDE: Average # of AOs per PAO                   ...    92.0
CRUDE: Average # of atoms per PAO                 ...     2.0
CRUDE: Average # of atoms per a pair domain       ...    2.00
CRUDE: Average # of atoms per AUX domain          ...    1.83
CRUDE: Average # of atoms per a pair AUX domain   ...    1.97

 * Extended Maps .. 
CRUDE: Average # of PAOs (Atoms) per Occ          ...     2.0
CRUDE: Average # of PAOs (AOs) per Occ            ...    93.0

 * Trafo Maps .. 
CRUDE: Average # of PAOs (Atoms) per Occ (Trafo)  ...     2.0
CRUDE: Average # of PAOs (AOs) per Occ (Trafo)    ...    93.0
CRUDE: Average # of AUX (Atoms) per Occ (Trafo)   ...     2.0
CRUDE: Average # of AUX (AOs) per Occ (Trafo)     ...   212.0

--------------------------------
LOCAL RI TRANSFORMATION (IAVPAO)
--------------------------------

Orbital window:       2 to 7
Number of PAOs:      93
Basis functions:     92 (28 shells)
Aux. functions:     212 (56 shells)

Processing maps (0.0 sec)
Average map sizes:
   Aux shells -> MOs               6.0
   Aux shells -> PAOs             93.0
   MOs        -> AO shells        28.0
   PAOs       -> AO shells        28.0

Calculating integrals (0.1 sec, 0.905 MB)
Sorting integrals (0.0 sec, 0.903 MB)
Total time for the integral transformation: 0.1 sec

-----------------------------------------
   _  _______   __    ___  _  ______     
  / |/ / __/ | / /___/ _ \/ |/ / __ \  
 /    / _/ | |/ /___/ ___/    / /_/ /    
/_/|_/___/ |___/   /_/  /_/|_/\____/    
                                         
                for open-shell molecules 
-----------------------------------------


 ==> UMP guess in NEV-PNO space 

Truncation parameters                       .... 
    PAOOverlapThresh     =        1.000e-08
Pair selection                          .... not used
    TCutPairs            =        1.000e-04
    TCutMKN              =        1.000e-02
    TCutDO               =        1.000e-02
    TCutCMO              =        1.000e-03
    TCutCPAO             =        1.000e-03
    TCutPNO              =        3.330e-07
    TScaleTCutPNO_SS     =        1.000e+00
    TScaleTCutPNO_SD     =        1.000e+00
    TScalePNO_Core       =        1.000e-02
    TCutDO_Crude         =        2.000e-02
    TCutMKN_Crude        =        1.000e-02
    TCutPairs_Crude      =        1.000e-04
    TCutPNO_Crude        =        3.330e-07
    TCutCMO              =        1.000e-03
    TCutCPAO             =        1.000e-03
Spin component scaling in ijab excitation            .... not used

Formation of guess energy and open-shell PNO.

NEV-PNO operators..
  E(ij->ab)
  E(ip->ab)
  E(pq->ra)
  E(ip->qr)
  E(ip->aq) and E(ip->qa)

 Norm of Semi-Internal Fock Operators ...   0.0001735964
  ==> Semi-internal excitations detected 

   .... Finished loop over pairs

                       ===========================
                         31 OF   31 PAIRS ARE KEPT CC PAIRS
                          0 OF   31 PAIRS ARE KEPT PT2 PAIRS
                          0 OF   31 PAIRS ARE SKIPPED
                       ===========================

 Initial PAO correlation energy (all pairs)    ...  -0.3969815672 Eh
 Energy constituents in PAO basis (Eh):
  | Vijab(+0) ...  -0.2885454617
  | Viab (-1) ...  -0.0538822191
  | Va   (-1) ...  -0.0000576386
  | Vija (+1) ...  -0.0406158570
  | Via  (+0) ...  -0.0138786641
  | Vi   (+1) ...  -0.0000017266
 Initial PNO correlation energy                ...  -0.3951054067 Eh
 Energy constituents in PNO basis (Eh):
  | Vijab(+0) ...  -0.2882830297 (err=  0.0002624320)
  | Viab (-1) ...  -0.0522655810 (err=  0.0016166381)
  | Va   (-1) ...  -0.0000576386 (err=  0.0000000000)
  | Vija (+1) ...  -0.0406182161 (err= -0.0000023591)
  | Via  (+0) ...  -0.0138792147 (err= -0.0000005506)
  | Vi   (+1) ...  -0.0000017266 (err=  0.0000000000)
 Sum of total truncation errors ...   0.0018761604 Eh
  | Pair screening ...   0.0000000000 Eh
  | PNO truncation ...   0.0018761604 Eh

 UMP2 correlation energy (PAO) ...  -0.3912663611
  | alpha-alpha ...  -0.0512418974 (NP_aa=   15)
  | alpha-beta  ...  -0.2904000974 (NP_ab=   30)
  | beta -beta  ...  -0.0496243663 (NP_bb=   10)
 UMP2 correlation energy (PNO) ...  -0.3893685247
  | alpha-alpha ...  -0.0501752496 (err=  0.0010666478, NP_aa=   15)
  | alpha-beta  ...  -0.2895991711 (err=  0.0008009263, NP_ab=   30)
  | beta -beta  ...  -0.0495941040 (err=  0.0000302623, NP_bb=   10)
 Sum of total UMP2 truncation errors ...   0.0018978364 Eh
  | Pair screening ...   0.0000000000 Eh
  | PNO truncation ...   0.0018978364 Eh
 Timing for NEV-PNO construction (sec.)
  | Intermediate construction  ..            0.000
  | Amplitude construction     ..            0.001
  | Total time                 ..            0.001
 Making pair pair interaction lists ...      ok
                                                 
  ___         ___     __        ___  __   __     
 |__  | |\ | |__     / _` |  | |__  /__` /__`   
 |    | | \| |___    \__> \__/ |___ .__/ .__/ 
                                                 

Thresholds for map construction and integral transformation:
   TCutMKN   ...     1.0e-03
   TCutDO    ...     1.0e-02
   TCutCMO   ...     1.0e-03
   TCutCPAO  ...     1.0e-03

--------------------------------
LOCAL RI TRANSFORMATION (IAVPAO)
--------------------------------

Orbital window:       2 to 7
Number of PAOs:      93
Basis functions:     92 (28 shells)
Aux. functions:     212 (56 shells)

Processing maps (0.0 sec)
Average map sizes:
   Aux shells -> MOs               6.0
   Aux shells -> PAOs             93.0
   MOs        -> AO shells        28.0
   PAOs       -> AO shells        28.0

Calculating integrals (0.1 sec, 0.905 MB)
Sorting integrals (0.0 sec, 0.903 MB)
Total time for the integral transformation: 0.1 sec

 ==> UMP guess in NEV-PNO space 

Truncation parameters                       .... 
    PAOOverlapThresh     =        1.000e-08
Pair selection                          .... not used
    TCutPairs            =        1.000e-04
    TCutMKN              =        1.000e-03
    TCutDO               =        1.000e-02
    TCutCMO              =        1.000e-03
    TCutCPAO             =        1.000e-03
    TCutPNO              =        3.330e-07
    TScaleTCutPNO_SS     =        1.000e+00
    TScaleTCutPNO_SD     =        1.000e+00
    TScalePNO_Core       =        1.000e-02
    TScaleTCutPairs_Somo =        3.300e-01
    TScaleTCutPairs_Core =        1.000e+00
    TCutPairs_MP2        =        1.000e-05
    TCutCMO              =        1.000e-03
    TCutCPAO             =        1.000e-03
Spin component scaling in ijab excitation            .... not used

Formation of guess energy and open-shell PNO.

NEV-PNO operators..
  E(ij->ab)
  E(ip->ab)
  E(pq->ra)
  E(ip->qr)
  E(ip->aq) and E(ip->qa)

   .... Finished loop over pairs

 PNO Occupation Number Statistics: 
  | Av. % of trace(Dij) retained        ...  99.953718233607
  | Av. % of trace(Dip) retained        ...  99.912605648447
  | Av. % of trace(Dpq) retained        ...  99.999856291073
  | sigma^2 in % of trace(Dij) retained ...   3.91e-03
  | sigma^2 in % of trace(Dip) retained ...   1.94e-03
  | sigma^2 in % of trace(Dpq) retained ...   0.00e+00
  | Av. % of trace(Di) retained         ...  99.999643478124
  | Av. % of trace(Dp) retained         ...  99.999999484671
  | sigma^2 in % of trace(Di) retained  ...   2.21e-08
  | sigma^2 in % of trace(Dp) retained  ...   0.00e+00
 Distributions of % trace(Dij) recovered:
  |       >= 99.9  ...    14 ( 93.3 % of all IJ-pairs)
  |   [99.0, 99.9) ...     1 (  6.7 % of all IJ-pairs)
 Distributions of % trace(Dip) recovered:
  |       >= 99.9  ...     2 ( 40.0 % of all IP-pairs)
  |   [99.0, 99.9) ...     3 ( 60.0 % of all IP-pairs)
 Distributions of % trace(Dpq) recovered:
  |       >= 99.9  ...     1 (100.0 % of all PQ-pairs)
 Distributions of % trace(Di) recovered :
  |       >= 99.9  ...     5 (100.0 % of all I-pairs )
 Distributions of % trace(Dp) recovered :
  |       >= 99.9  ...     1 (100.0 % of all P-pairs )

                       ===========================
                         31 OF   31 PAIRS ARE KEPT
                       ===========================

 Initial PAO correlation energy (all pairs)    ...  -0.3970566162 Eh
 Energy constituents in PAO basis (Eh):
  | Vijab(+0) ...  -0.2886211385
  | Viab (-1) ...  -0.0538822191
  | Va   (-1) ...  -0.0000576386
  | Vija (+1) ...  -0.0406152292
  | Via  (+0) ...  -0.0138786641
  | Vi   (+1) ...  -0.0000017266
 Initial PNO correlation energy                ...  -0.3951750869 Eh
 Energy constituents in PNO basis (Eh):
  | Vijab(+0) ...  -0.2883533577 (err=  0.0002677808)
  | Viab (-1) ...  -0.0522655810 (err=  0.0016166381)
  | Va   (-1) ...  -0.0000576386 (err=  0.0000000000)
  | Vija (+1) ...  -0.0406175683 (err= -0.0000023390)
  | Via  (+0) ...  -0.0138792147 (err= -0.0000005506)
  | Vi   (+1) ...  -0.0000017266 (err=  0.0000000000)
 Sum of total truncation errors ...   0.0018815292 Eh
  | Pair screening ...   0.0000000000 Eh
  | PNO truncation ...   0.0018815292 Eh

 UMP2 correlation energy (PAO) ...  -0.3913413958
  | alpha-alpha ...  -0.0512418974 (NP_aa=   15)
  | alpha-beta  ...  -0.2904751321 (NP_ab=   30)
  | beta -beta  ...  -0.0496243663 (NP_bb=   10)
 UMP2 correlation energy (PNO) ...  -0.3894381908
  | alpha-alpha ...  -0.0501752496 (err=  0.0010666478, NP_aa=   15)
  | alpha-beta  ...  -0.2896688372 (err=  0.0008062949, NP_ab=   30)
  | beta -beta  ...  -0.0495941040 (err=  0.0000302623, NP_bb=   10)
 Sum of total UMP2 truncation errors ...   0.0019032050 Eh
  | Pair screening ...   0.0000000000 Eh
  | PNO truncation ...   0.0019032050 Eh
 Timing for NEV-PNO construction (sec.)
  | Intermediate construction  ..            0.000
  | Amplitude construction     ..            0.001
  | Total time                 ..            0.002
 Making pair pair interaction lists ...      ok
 Total size for 2-ext PNO integrals ...      0.6 MB
Checking the number of SOMO/SOMO doubles PNOs ...  No PNOs should be truncated!

--------------------------------
LOCAL RI TRANSFORMATION (VABPAO)
--------------------------------

Number of PAOs:      93
Basis functions:     92 (28 shells)
Aux. functions:     212 (56 shells)

Processing maps (0.0 sec)
Average map sizes:
   Aux shells -> PAOs             93.0
   PAOs       -> AO shells        28.0

Calculating integrals (0.1 sec, 24.947 MB)
Finished
-----------------------------
LOCAL RI TRANSFORMATION (IJV)
-----------------------------

Orbital window:       2 to 7
Basis functions:     92 (28 shells)
Aux. functions:     212 (56 shells)

Processing maps (0.0 sec)
Average map sizes:
   Aux shells -> MOs(i)            6.0
   Aux shells -> MOs(j)            6.0
   MOs        -> AO shells        28.0

Calculating integrals (0.1 sec, 0.061 MB)
Sorting integrals (0.0 sec, 0.058 MB)
Total time for the integral transformation: 0.1 sec


-------------------------------------
[...]
>> Statistics for ij-pairs..
   #pairs with  1 -  5 PNOs   :    0
   #pairs with  6 - 10 PNOs   :    0
   #pairs with 11 - 15 PNOs   :    0
   #pairs with 16 - 20 PNOs   :    0
   #pairs with 21 - 25 PNOs   :    0
   #pairs with 26 - 30 PNOs   :    0
   #pairs with 31 - 35 PNOs   :    0
   #pairs with 36 - 40 PNOs   :    2
   #pairs with 41 - 45 PNOs   :    2
   #pairs with 46 - 50 PNOs   :    3
   #pairs with 51 - 55 PNOs   :   12
   #pairs with 56 - 60 PNOs   :    6
>> Statistics for ip-pairs..
   #pairs with  1 -  5 PNOs   :    0
   #pairs with  6 - 10 PNOs   :    0
   #pairs with 11 - 15 PNOs   :    0
   #pairs with 16 - 20 PNOs   :    0
   #pairs with 21 - 25 PNOs   :    0
   #pairs with 26 - 30 PNOs   :    0
   #pairs with 31 - 35 PNOs   :    1
   #pairs with 36 - 40 PNOs   :    1
   #pairs with 41 - 45 PNOs   :    2
   #pairs with 46 - 50 PNOs   :    1
>> Statistics for pq-pairs..
   #pairs with  1 -  5 PNOs   :    0
   #pairs with  6 - 10 PNOs   :    0
   #pairs with 11 - 15 PNOs   :    0
   #pairs with 16 - 20 PNOs   :    0
   #pairs with 21 - 25 PNOs   :    0
   #pairs with 26 - 30 PNOs   :    0
   #pairs with 31 - 35 PNOs   :    0
   #pairs with 36 - 40 PNOs   :    0
   #pairs with 41 - 45 PNOs   :    0
   #pairs with 46 - 50 PNOs   :    0
   #pairs with 61 - 65 PNOs   :    1

Generation of (ij|ab)[P] integrals            ... on
Generation of (ia|bc)[P],(ja|bc)[P] integrals ... on
Storage of 3 and 4 external integrals         ... on
Generation of ALL (ka|bc)[P] integrals        ... on
Keep RI integrals in memory                   ... off

Ibatch:  1 (of  1)
Starting 2-4 index PNO integral generation ... done

Timings:
Total PNO integral transformation time     ...          0.589 sec
Size of the 3-external file                ...        20 MB
Size of the 4-external file                ...       131 MB
Size of the IKJL file                      ...         0 MB
Size of the all 3-external file            ...        60 MB
Size of the 1-external file                ...         0 MB

Size of the PAO/PNO coefficient matrices   ...       1.1 MB

Average # of AOs per PAO                   ...    92.0
Average # of atoms per PAO                 ...     2.0
Average # of atoms per a pair domain       ...    2.00
Average # of atoms per AUX domain          ...    2.00
Average # of atoms per a pair AUX domain   ...    2.00

 * Extended Maps .. 
Average # of PAOs (Atoms) per Occ          ...     2.0
Average # of PAOs (AOs) per Occ            ...    93.0

 * Trafo Maps .. 
Average # of PAOs (Atoms) per Occ (Trafo)  ...     2.0
Average # of PAOs (AOs) per Occ (Trafo)    ...    93.0
Average # of AUX (Atoms) per Occ (Trafo)   ...     2.0
Average # of AUX (AOs) per Occ (Trafo)     ...   212.0

Making pair/pair overlap matrices          ... done (    0.016 sec)
Size of the pair overlap file              ...       8.0 MB
Total # unrestricted pairs ...         55
  # of alpha-alpha pairs   ...         15
  # of alpha-beta pairs    ...         30
  # of beta-beta pairs     ...         10
Constructing the guess amplitudes          ... done (    0.002 sec)

-------------------------
FINAL STARTUP INFORMATION
-------------------------

E(0)                                       ...   -129.292368630
E(SL-UMP2 in NEV-PNO space)                ...     -0.391341396
Initial E(tot)                             ...   -129.683710025
<T|T>                                      ...      0.072004229
Number of unrestricted pairs included      ... 55
Total number of pairs                      ... 55
----------------------------------------------------------
                     OPEN-SHELL COUPLED CLUSTER ITERATIONS
----------------------------------------------------------

Number of PNO amplitudes to be optimized        ...           134863
Number of canonical amplitudes for strong pairs ...           393219
Untruncated number of canonical amplitudes      ...           393219

Iter       E(tot)           E(Corr)          Delta-E          Residual     Time
  0   -129.688222138     -0.393950303     -0.002608907      0.025584709    5.30
                           *** Turning on DIIS ***
  1   -129.689636725     -0.395364891     -0.001414588      0.016218238    5.44
  2   -129.701030401     -0.406758567     -0.011393676      0.007934658    5.20
  3   -129.704333553     -0.410061718     -0.003303151      0.004210474    5.13
  4   -129.705618982     -0.411347147     -0.001285429      0.002062921    5.10
  5   -129.705920568     -0.411648734     -0.000301587      0.000681408    5.19
  6   -129.706002806     -0.411730971     -0.000082237      0.000345868    5.27
  7   -129.706021090     -0.411749256     -0.000018285      0.000137326    5.39
  8   -129.706021671     -0.411749836     -0.000000581      0.000073736    5.26
  9   -129.706022271     -0.411750436     -0.000000600      0.000036244    5.55
 10   -129.706022808     -0.411750974     -0.000000537      0.000012336    5.16
 11   -129.706022964     -0.411751130     -0.000000156      0.000004905    5.23
               --- The CCSD iterations have converged ---

E(0)                                       ...   -129.292368630
E(CORR)(strong-pairs)                      ...     -0.411751130
E(CORR)(weak-pairs)                        ...     -0.001903205
E(CORR)(corrected)                         ...     -0.413654335
E(TOT)                                     ...   -129.706022964
Singles norm <S|S>**1/2                    ...      0.071533284 ( 0.036636757, 0.034896526)  
T1 diagnostic                              ...      0.021568097                              
<S**2>(linearized)                         ...      0.7502117 (ideal value:      0.7500000)

----------------------
LARGEST PNO AMPLITUDES
----------------------
   4a->  8a   4b->  8b       0.063412
   6a->  8a   6b->  8b       0.063412
   2a->  8a   2b->  8b       0.057558
   5b->  7b  -1b-> -1b       0.051527
   6a->  8a   4b->  8b       0.050784
   4a->  8a   6b->  8b       0.050784
   4a->  8a   5b->  7b       0.044165
   6a->  8a   5b->  7b       0.044165
   6b->  8b   5b->  7b       0.031317
   6b->  7b   5b->  8b       0.031317
   5b->  7b   4b->  8b       0.031317
   5b->  8b   4b->  7b       0.031317
   3a->  8a   3b->  8b       0.028359
   6b->  7b   4b->  8b       0.027812
   6b->  8b   4b->  7b       0.027812
   2a-> 16a   2b-> 16b       0.027425

----------------------------
STATISTICS FOR PAIR-ENERGIES
----------------------------
Minimum, maximum and average ratios of UMP and CCSD pair-energies ... 0.79, 1.18, 1.01

        !!!!!!!!!!!!!!!!!!!!!!!!!!!!!!!!!!!!!!!!!!!!!!!!!!!!!!!!!!!!!!!!!!!!!!!!!! 
        !  Warning: Linearized densities requested! These are not the proper     !
        !  density matrices for non-variational theories, e.g., CCSD, QCISD.     !
        !  It is better to use the Density = Unrelaxed option in the input.      !
        !!!!!!!!!!!!!!!!!!!!!!!!!!!!!!!!!!!!!!!!!!!!!!!!!!!!!!!!!!!!!!!!!!!!!!!!!! 

NORM  =      1.125282268 sqrt=     1.060793226
W(HF) =      0.888665918
------------------------------------------------------------------------------
                           ORCA POPULATION ANALYSIS
------------------------------------------------------------------------------
Input electron density              ... nitrogen_monoxide_DLPNO-CCSD_aug-cc-pVTZ_SPE.mdcip
Input spin density                  ... nitrogen_monoxide_DLPNO-CCSD_aug-cc-pVTZ_SPE.mdcir
BaseName (.gbw .S,...)              ... nitrogen_monoxide_DLPNO-CCSD_aug-cc-pVTZ_SPE

                    ********************************
                    * MULLIKEN POPULATION ANALYSIS *
                    ********************************

------------------------------------------
MULLIKEN ATOMIC CHARGES AND SPIN DENSITIES
------------------------------------------
   0 N :   -0.011805    0.687547
   1 O :    0.011805    0.312453
Sum of atomic charges       :   -0.0000000
Sum of atomic spin densities:    1.0000000

---------------------------------------------------
MULLIKEN REDUCED ORBITAL CHARGES AND SPIN DENSITIES
---------------------------------------------------
CHARGE
  0 N s       :     3.962119  s :     3.962119
      pz      :     0.699885  p :     2.940837
      px      :     0.961295
      py      :     1.279657
      dz2     :     0.006976  d :     0.094036
      dxz     :     0.028952
      dyz     :     0.005090
      dx2y2   :     0.016394
      dxy     :     0.036623
      f0      :     0.000513  f :     0.014813
      f+1     :     0.001209
      f-1     :     0.000382
      f+2     :     0.002619
      f-2     :     0.000587
      f+3     :     0.002705
      f-3     :     0.006798
  1 O s       :     3.801078  s :     3.801078
      pz      :     1.250277  p :     4.080213
      px      :     1.203447
      py      :     1.626489
      dz2     :     0.007010  d :     0.096980
      dxz     :     0.030170
      dyz     :     0.005666
      dx2y2   :     0.014396
      dxy     :     0.039738
      f0      :     0.000846  f :     0.009924
      f+1     :     0.000771
      f-1     :     0.000471
      f+2     :     0.002115
      f-2     :     0.000617
      f+3     :     0.001457
      f-3     :     0.003646

SPIN
  0 N s       :     0.004187  s :     0.004187
      pz      :     0.020785  p :     0.673898
      px      :    -0.003648
      py      :     0.656761
      dz2     :    -0.000591  d :     0.008855
      dxz     :    -0.001761
      dyz     :     0.001187
      dx2y2   :     0.001738
      dxy     :     0.008283
      f0      :     0.000178  f :     0.000606
      f+1     :    -0.000005
      f-1     :     0.000322
      f+2     :    -0.000955
      f-2     :     0.000012
      f+3     :    -0.000397
      f-3     :     0.001451
  1 O s       :     0.016080  s :     0.016080
      pz      :    -0.016684  p :     0.283912
      px      :    -0.010110
      py      :     0.310706
      dz2     :    -0.000174  d :     0.011957
      dxz     :    -0.000409
      dyz     :     0.000409
      dx2y2   :     0.002564
      dxy     :     0.009567
      f0      :     0.000050  f :     0.000504
      f+1     :     0.000048
      f-1     :     0.000057
      f+2     :    -0.000226
      f-2     :    -0.000009
      f+3     :     0.000134
      f-3     :     0.000451


                     *******************************
                     * LOEWDIN POPULATION ANALYSIS *
                     *******************************

-----------------------------------------
LOEWDIN ATOMIC CHARGES AND SPIN DENSITIES
-----------------------------------------
   0 N :   -0.107248    0.608363
   1 O :    0.107248    0.391637

--------------------------------------------------
LOEWDIN REDUCED ORBITAL CHARGES AND SPIN DENSITIES
--------------------------------------------------
CHARGE
  0 N s       :     3.303533  s :     3.303533
      pz      :     0.688335  p :     3.067699
      px      :     1.275568
      py      :     1.103796
      dz2     :     0.055297  d :     0.503472
      dxz     :     0.092326
      dyz     :     0.004818
      dx2y2   :     0.161422
      dxy     :     0.189609
      f0      :     0.020492  f :     0.232543
      f+1     :     0.030660
      f-1     :     0.005688
      f+2     :     0.036202
      f-2     :     0.000848
      f+3     :     0.051460
      f-3     :     0.087193
  1 O s       :     3.377750  s :     3.377750
      pz      :     1.097956  p :     3.977808
      px      :     1.493462
      py      :     1.386389
      dz2     :     0.047720  d :     0.405117
      dxz     :     0.053781
      dyz     :     0.005457
      dx2y2   :     0.136386
      dxy     :     0.161774
      f0      :     0.009545  f :     0.132077
      f+1     :     0.017142
      f-1     :     0.003910
      f+2     :     0.016741
      f-2     :     0.000837
      f+3     :     0.028457
      f-3     :     0.055446

SPIN
  0 N s       :     0.008647  s :     0.008647
      pz      :     0.015785  p :     0.477085
      px      :    -0.005729
      py      :     0.467028
      dz2     :     0.000193  d :     0.091547
      dxz     :    -0.003342
      dyz     :     0.001076
      dx2y2   :     0.003540
      dxy     :     0.090079
      f0      :     0.000020  f :     0.031084
      f+1     :     0.000794
      f-1     :     0.002210
      f+2     :    -0.001313
      f-2     :     0.000056
      f+3     :    -0.000170
      f-3     :     0.029486
  1 O s       :     0.003628  s :     0.003628
      pz      :    -0.012679  p :     0.226571
      px      :    -0.006717
      py      :     0.245967
      dz2     :     0.001374  d :     0.122069
      dxz     :     0.001381
      dyz     :     0.000404
      dx2y2   :     0.003177
      dxy     :     0.115733
      f0      :     0.000581  f :     0.039369
      f+1     :     0.000970
      f-1     :     0.002372
      f+2     :     0.000543
      f-2     :     0.000064
      f+3     :     0.000118
      f-3     :     0.034721


                      *****************************
                      * MAYER POPULATION ANALYSIS *
                      *****************************

  NA   - Mulliken gross atomic population
  ZA   - Total nuclear charge
  QA   - Mulliken gross atomic charge
  VA   - Mayer's total valence
  BVA  - Mayer's bonded valence
  FA   - Mayer's free valence

  ATOM       NA         ZA         QA         VA         BVA        FA
  0 N      7.0118     7.0000    -0.0118     2.6622     1.7641     0.8981
  1 O      7.9882     8.0000     0.0118     2.3559     1.7641     0.5918

  Mayer bond orders larger than 0.100000
B(  0-N ,  1-O ) :   1.7641 



------------------------------------------------------------------------------- 
                                     TIMINGS                                   
------------------------------------------------------------------------------- 


Total execution time                   ...       65.961 sec

Localization of occupied MO's          ...        0.289 sec (  0.4%)
Fock Matrix Formation                  ...        0.177 sec (  0.3%)
Differential overlap integrals         ...        0.007 sec (  0.0%)
Organizing maps                        ...        0.002 sec (  0.0%)
RI 3-index integral generations        ...        0.535 sec (  0.8%)
RI-PNO integral transformation         ...        1.100 sec (  1.7%)
Initial Guess                          ...        0.205 sec (  0.3%)
DIIS Solver                            ...        0.091 sec (  0.1%)
State Vector Update                    ...        0.010 sec (  0.0%)
Sigma-vector construction              ...       63.218 sec ( 95.8%)
  <0|H|D>                              ...        0.001 sec (  0.0% of sigma)
  <D|H|D>(0-ext)                       ...        0.163 sec (  0.3% of sigma)
  <D|H|D>(2-ext Fock)                  ...        0.007 sec (  0.0% of sigma)
  <D|H|D>(2-ext)                       ...        2.010 sec (  3.2% of sigma)
  <D|H|D>(4-ext)                       ...       14.493 sec ( 22.9% of sigma)
  <D|H|D>(4-ext-corr)                  ...       42.873 sec ( 67.8% of sigma)
  CCSD doubles correction              ...        0.074 sec (  0.1% of sigma)
  <S|H|S>                              ...        0.115 sec (  0.2% of sigma)
  <S|H|D>(1-ext)                       ...        0.048 sec (  0.1% of sigma)
  <D|H|S>(1-ext)                       ...        0.003 sec (  0.0% of sigma)
  <S|H|D>(3-ext)                       ...        0.254 sec (  0.4% of sigma)
  Fock-dressing                        ...        1.578 sec (  2.5% of sigma)
  Singles amplitudes                   ...        0.018 sec (  0.0% of sigma)
  (ik|jl)-dressing                     ...        0.153 sec (  0.2% of sigma)
  (ij|ab),(ia|jb)-dressing             ...        0.818 sec (  1.3% of sigma)
  Pair energies                        ...        0.002 sec (  0.0% of sigma)


-------------------------   --------------------
FINAL SINGLE POINT ENERGY      -129.706022964464
-------------------------   --------------------


                            ***************************************
                            *     ORCA property calculations      *
                            ***************************************

                                    ---------------------
                                    Active property flags
                                    ---------------------
   (+) Dipole Moment


------------------------------------------------------------------------------
                       ORCA ELECTRIC PROPERTIES CALCULATION
------------------------------------------------------------------------------

Dipole Moment Calculation                       ... on
Quadrupole Moment Calculation                   ... off
Polarizability Calculation                      ... off
GBWName                                         ... nitrogen_monoxide_DLPNO-CCSD_aug-cc-pVTZ_SPE.gbw
Electron density file                           ... nitrogen_monoxide_DLPNO-CCSD_aug-cc-pVTZ_SPE.scfp
The origin for moment calculation is the CENTER OF MASS  = (-51.543384, 22.991674  0.000000)

-------------
DIPOLE MOMENT
-------------
                                X             Y             Z
Electronic contribution:     -0.08447       0.00000      -0.00000
Nuclear contribution   :      0.00451       0.00000       0.00000
                        -----------------------------------------
Total Dipole Moment    :     -0.07996       0.00000      -0.00000
                        -----------------------------------------
Magnitude (a.u.)       :      0.07996
Magnitude (Debye)      :      0.20324



--------------------
Rotational spectrum 
--------------------
 
Rotational constants in cm-1:     0.000000     1.745556     1.745556 
Rotational constants in MHz :     0.000000 52330.457168 52330.457168 

 Dipole components along the rotational axes: 
x,y,z [a.u.] :    -0.079960     0.000000    -0.000000 
x,y,z [Debye]:    -0.203242     0.000000    -0.000000 

 

                           *** MDCI DENSITY ***

------------------------------------------------------------------------------
                       ORCA ELECTRIC PROPERTIES CALCULATION
------------------------------------------------------------------------------

Dipole Moment Calculation                       ... on
Quadrupole Moment Calculation                   ... off
Polarizability Calculation                      ... off
GBWName                                         ... nitrogen_monoxide_DLPNO-CCSD_aug-cc-pVTZ_SPE.gbw
Electron density file                           ... nitrogen_monoxide_DLPNO-CCSD_aug-cc-pVTZ_SPE.mdcip
The origin for moment calculation is the CENTER OF MASS  = (-51.543384, 22.991674  0.000000)

-------------
DIPOLE MOMENT
-------------
                                X             Y             Z
Electronic contribution:      0.12378      -0.00086      -0.00011
Nuclear contribution   :      0.00451       0.00000       0.00000
                        -----------------------------------------
Total Dipole Moment    :      0.12829      -0.00086      -0.00011
                        -----------------------------------------
Magnitude (a.u.)       :      0.12829
Magnitude (Debye)      :      0.32610



--------------------
Rotational spectrum 
--------------------
 
Rotational constants in cm-1:     0.000000     1.745556     1.745556 
Rotational constants in MHz :     0.000000 52330.457168 52330.457168 

 Dipole components along the rotational axes: 
x,y,z [a.u.] :     0.128292    -0.000855    -0.000105 
x,y,z [Debye]:     0.326091    -0.002173    -0.000268 

 

Timings for individual modules:

Sum of individual times         ...       90.655 sec (=   1.511 min)
GTO integral calculation        ...        0.329 sec (=   0.005 min)   0.4 %
SCF iterations                  ...       24.221 sec (=   0.404 min)  26.7 %
MDCI module                     ...       66.104 sec (=   1.102 min)  72.9 %
                             ****ORCA TERMINATED NORMALLY****
TOTAL RUN TIME: 0 days 0 hours 1 minutes 30 seconds 889 msec
