
                                 *****************
                                 * O   R   C   A *
                                 *****************

           --- An Ab Initio, DFT and Semiempirical electronic structure package ---

                  #######################################################
                  #                        -***-                        #
                  #          Department of theory and spectroscopy      #
                  #               Directorship: Frank Neese             #
                  #        Max Planck Institute fuer Kohlenforschung    #
                  #                Kaiser Wilhelm Platz 1               #
                  #                 D-45470 Muelheim/Ruhr               #
                  #                      Germany                        #
                  #                                                     #
                  #                  All rights reserved                #
                  #                        -***-                        #
                  #######################################################


                         Program Version 4.2.1 -  RELEASE  -


 With contributions from (in alphabetic order):
   Daniel Aravena         : Magnetic Suceptibility
   Michael Atanasov       : Ab Initio Ligand Field Theory (pilot matlab implementation)
   Alexander A. Auer      : GIAO ZORA, VPT2
   Ute Becker             : Parallelization
   Giovanni Bistoni       : ED, misc. LED, open-shell LED, HFLD
   Martin Brehm           : Molecular dynamics
   Dmytro Bykov           : SCF Hessian
   Vijay G. Chilkuri      : MRCI spin determinant printing, contributions to CSF-ICE
   Dipayan Datta          : RHF DLPNO-CCSD density
   Achintya Kumar Dutta   : EOM-CC, STEOM-CC
   Dmitry Ganyushin       : Spin-Orbit,Spin-Spin,Magnetic field MRCI
   Miquel Garcia          : C-PCM Hessian, Gaussian charge scheme
   Yang Guo               : DLPNO-NEVPT2, CIM, IAO-localization
   Andreas Hansen         : Spin unrestricted coupled pair/coupled cluster methods
   Benjamin Helmich-Paris : CASSCF linear response (MC-RPA)
   Lee Huntington         : MR-EOM, pCC
   Robert Izsak           : Overlap fitted RIJCOSX, COSX-SCS-MP3, EOM
   Christian Kollmar      : KDIIS, OOCD, Brueckner-CCSD(T), CCSD density
   Simone Kossmann        : Meta GGA functionals, TD-DFT gradient, OOMP2, MP2 Hessian
   Martin Krupicka        : AUTO-CI
   Lucas Lang             : DCDCAS
   Dagmar Lenk            : GEPOL surface, SMD
   Dimitrios Liakos       : Extrapolation schemes; Compound Job, initial MDCI parallelization
   Dimitrios Manganas     : Further ROCIS development; embedding schemes
   Dimitrios Pantazis     : SARC Basis sets
   Taras Petrenko         : DFT Hessian,TD-DFT gradient, ASA, ECA, R-Raman, ABS, FL, XAS/XES, NRVS
   Peter Pinski           : DLPNO-MP2, DLPNO-MP2 Gradient
   Christoph Reimann      : Effective Core Potentials
   Marius Retegan         : Local ZFS, SOC
   Christoph Riplinger    : Optimizer, TS searches, QM/MM, DLPNO-CCSD(T), (RO)-DLPNO pert. Triples
   Tobias Risthaus        : Range-separated hybrids, TD-DFT gradient, RPA, STAB
   Michael Roemelt        : Original ROCIS implementation
   Masaaki Saitow         : Open-shell DLPNO-CCSD energy and density
   Barbara Sandhoefer     : DKH picture change effects
   Avijit Sen             : IP-ROCIS
   Kantharuban Sivalingam : CASSCF convergence, NEVPT2, FIC-MRCI
   Bernardo de Souza      : ESD, SOC TD-DFT
   Georgi Stoychev        : AutoAux, RI-MP2 NMR
   Willem Van den Heuvel  : Paramagnetic NMR
   Boris Wezisla          : Elementary symmetry handling
   Frank Wennmohs         : Technical directorship


 We gratefully acknowledge several colleagues who have allowed us to
 interface, adapt or use parts of their codes:
   Stefan Grimme, W. Hujo, H. Kruse,             : VdW corrections, initial TS optimization,
                  C. Bannwarth                     DFT functionals, gCP, sTDA/sTD-DF
   Ed Valeev, F. Pavosevic, A. Kumar             : LibInt (2-el integral package), F12 methods
   Garnet Chan, S. Sharma, J. Yang, R. Olivares  : DMRG
   Ulf Ekstrom                                   : XCFun DFT Library
   Mihaly Kallay                                 : mrcc  (arbitrary order and MRCC methods)
   Andreas Klamt, Michael Diedenhofen            : otool_cosmo (COSMO solvation model)
   Jiri Pittner, Ondrej Demel                    : Mk-CCSD
   Frank Weinhold                                : gennbo (NPA and NBO analysis)
   Christopher J. Cramer and Donald G. Truhlar   : smd solvation model
   Lars Goerigk                                  : TD-DFT with DH, B97 family of functionals
   V. Asgeirsson, H. Jonsson                     : NEB implementation
   FAccTs GmbH                                   : IRC, NEB, NEB-TS, Multilevel, MM, QM/MM, CI optimization
   S Lehtola, MJT Oliveira, MAL Marques          : LibXC Library


 Your calculation uses the libint2 library for the computation of 2-el integrals
 For citations please refer to: http://libint.valeyev.net

 Your ORCA version has been built with support for libXC version: 4.2.3
 For citations please refer to: https://tddft.org/programs/libxc/

 This ORCA versions uses:
   CBLAS   interface :  Fast vector & matrix operations
   LAPACKE interface :  Fast linear algebra routines
   SCALAPACK package :  Parallel linear algebra routines




***************************************
The coordinates will be read from file: nitrogen_monoxide.xyz
***************************************


----- Orbital basis set information -----
Your calculation utilizes the basis: cc-pVDZ 
       H, B-Ne : Obtained from the ccRepo (grant-hill.group.shef.ac.uk/ccrepo) Feb. 2017
                 T. H. Dunning, Jr., J. Chem. Phys. 90, 1007 (1989)
            He : Obtained from the ccRepo (grant-hill.group.shef.ac.uk/ccrepo) Feb. 2017
                 D. E. Woon, T. H. Dunning, Jr., J. Chem. Phys. 100, 2975 (1994)
  Li-Be, Na-Mg : Obtained from the ccRepo (grant-hill.group.shef.ac.uk/ccrepo) Feb. 2017
                 B. P. Prascher, D. E. Woon, K. A. Peterson, T. H. Dunning, Jr., A. K. Wilson, Theor. Chem. Acc. 128, 69 (2011)
         Al-Ar : Obtained from the ccRepo (grant-hill.group.shef.ac.uk/ccrepo) Feb. 2017
                 D. E. Woon, T. H. Dunning, Jr., J. Chem. Phys. 98, 1358 (1993)
            Ca : Obtained from the Peterson Research Group Website (tyr0.chem.wsu.edu/~kipeters) Feb. 2017
                 J. Koput, K. A. Peterson, J. Phys. Chem. 106, 9595 (2002)
         Sc-Zn : Obtained from the ccRepo (grant-hill.group.shef.ac.uk/ccrepo) Feb. 2017
                 N. B. Balabanov, K. A. Peterson, J. Chem. Phys. 123, 064107 (2005)
                 N. B. Balabanov, K. A. Peterson, J. Chem. Phys. 125, 074110 (2006)
         Ga-Kr : Obtained from the ccRepo (grant-hill.group.shef.ac.uk/ccrepo) Feb. 2017
                 A. K. Wilson, D. E. Woon, K. A. Peterson, T. H. Dunning, Jr., J. Chem. Phys. 110, 7667 (1999)

================================================================================
                                        WARNINGS
                       Please study these warnings very carefully!
================================================================================


WARNING: your system is open-shell and RHF/RKS was chosen
  ===> : WILL SWITCH to UHF/UKS


WARNING: Geometry Optimization
  ===> : Switching off AutoStart
         For restart on a previous wavefunction, please use MOREAD

INFO   : the flag for use of LIBINT has been found!

================================================================================
                                       INPUT FILE
================================================================================
NAME = nitrogen_monoxide_B3LYP_cc-pVDZ_OPT.inp
|  1> # nitrogen_monoxide OPT with B3LYP/cc-pVDZ
|  2> 
|  3> ! B3LYP cc-pVDZ TightSCF Opt PAL4
|  4> 
|  5> * xyzfile 0 2 nitrogen_monoxide.xyz
|  6> 
|  7> 
|  8>                          ****END OF INPUT****
================================================================================

                       *****************************
                       * Geometry Optimization Run *
                       *****************************

Geometry optimization settings:
Update method            Update   .... BFGS
Choice of coordinates    CoordSys .... Z-matrix Internals
Initial Hessian          InHess   .... Almoef's Model

Convergence Tolerances:
Energy Change            TolE     ....  5.0000e-06 Eh
Max. Gradient            TolMAXG  ....  3.0000e-04 Eh/bohr
RMS Gradient             TolRMSG  ....  1.0000e-04 Eh/bohr
Max. Displacement        TolMAXD  ....  4.0000e-03 bohr
RMS Displacement         TolRMSD  ....  2.0000e-03 bohr
Strict Convergence                ....  False
------------------------------------------------------------------------------
                        ORCA OPTIMIZATION COORDINATE SETUP
------------------------------------------------------------------------------

The optimization will be done in new redundant internal coordinates
Making redundant internal coordinates   ...  (new redundants) done
Evaluating the initial hessian          ...  (Almloef) done
Evaluating the coordinates              ...  done
Calculating the B-matrix                .... done
Calculating the G-matrix                .... done
Diagonalizing the G-matrix              .... done
The first mode is                       ....    0
The number of degrees of freedom        ....    1

    -----------------------------------------------------------------
                    Redundant Internal Coordinates


    -----------------------------------------------------------------
         Definition                    Initial Value    Approx d2E/dq
    -----------------------------------------------------------------
      1. B(O   1,N   0)                  1.5400         0.288866   
    -----------------------------------------------------------------

Number of atoms                         .... 2
Number of degrees of freedom            .... 1

         *************************************************************
         *                GEOMETRY OPTIMIZATION CYCLE   1            *
         *************************************************************
---------------------------------
CARTESIAN COORDINATES (ANGSTROEM)
---------------------------------
  N    -28.083330   12.166670    0.000000
  O    -26.543330   12.166670    0.000000

----------------------------
CARTESIAN COORDINATES (A.U.)
----------------------------
  NO LB      ZA    FRAG     MASS         X           Y           Z
   0 N     7.0000    0    14.007  -53.069803   22.991674    0.000000
   1 O     8.0000    0    15.999  -50.159624   22.991674    0.000000

--------------------------------
INTERNAL COORDINATES (ANGSTROEM)
--------------------------------
 N      0   0   0     0.000000000000     0.00000000     0.00000000
 O      1   0   0     1.540000000000     0.00000000     0.00000000

---------------------------
INTERNAL COORDINATES (A.U.)
---------------------------
 N      0   0   0     0.000000000000     0.00000000     0.00000000
 O      1   0   0     2.910178246239     0.00000000     0.00000000

---------------------
BASIS SET INFORMATION
---------------------
There are 2 groups of distinct atoms

 Group   1 Type N   : 17s4p1d contracted to 3s2p1d pattern {881/31/1}
 Group   2 Type O   : 17s4p1d contracted to 3s2p1d pattern {881/31/1}

Atom   0N    basis set group =>   1
Atom   1O    basis set group =>   2


           ************************************************************
           *        Program running with 4 parallel MPI-processes     *
           *              working on a common directory               *
           ************************************************************
------------------------------------------------------------------------------
                           ORCA GTO INTEGRAL CALCULATION
------------------------------------------------------------------------------

                         BASIS SET STATISTICS AND STARTUP INFO

 # of primitive gaussian shells          ...   44
 # of primitive gaussian functions       ...   68
 # of contracted shells                  ...   12
 # of contracted basis functions         ...   28
 Highest angular momentum                ...    2
 Maximum contraction depth               ...    8
 Integral package used                   ... LIBINT
 Integral threshhold            Thresh   ...  2.500e-11
 Primitive cut-off              TCut     ...  2.500e-12


------------------------------ INTEGRAL EVALUATION ----------------------------


 * One electron integrals 
 Pre-screening matrix                    ... done
 Shell pair data                         ... done (   0.000 sec)



           ************************************************************
           *        Program running with 4 parallel MPI-processes     *
           *              working on a common directory               *
           ************************************************************
-------------------------------------------------------------------------------
                                 ORCA SCF
-------------------------------------------------------------------------------

------------
SCF SETTINGS
------------
Hamiltonian:
 Density Functional     Method          .... DFT(GTOs)
 Exchange Functional    Exchange        .... B88
   X-Alpha parameter    XAlpha          ....  0.666667
   Becke's b parameter  XBeta           ....  0.004200
 Correlation Functional Correlation     .... LYP
 LDA part of GGA corr.  LDAOpt          .... VWN-5
 Gradients option       PostSCFGGA      .... off
 Hybrid DFT is turned on
   Fraction HF Exchange ScalHFX         ....  0.200000
   Scaling of DF-GGA-X  ScalDFX         ....  0.720000
   Scaling of DF-GGA-C  ScalDFC         ....  0.810000
   Scaling of DF-LDA-C  ScalLDAC        ....  1.000000
   Perturbative correction              ....  0.000000
   Density functional embedding theory  .... OFF
   NL short-range parameter             ....  4.800000


General Settings:
 Integral files         IntName         .... nitrogen_monoxide_B3LYP_cc-pVDZ_OPT
 Hartree-Fock type      HFTyp           .... UHF
 Total Charge           Charge          ....    0
 Multiplicity           Mult            ....    2
 Number of Electrons    NEL             ....   15
 Basis Dimension        Dim             ....   28
 Nuclear Repulsion      ENuc            ....     19.2428075745 Eh

Convergence Acceleration:
 DIIS                   CNVDIIS         .... on
   Start iteration      DIISMaxIt       ....    12
   Startup error        DIISStart       ....  0.200000
   # of expansion vecs  DIISMaxEq       ....     5
   Bias factor          DIISBfac        ....   1.050
   Max. coefficient     DIISMaxC        ....  10.000
 Newton-Raphson         CNVNR           .... off
 SOSCF                  CNVSOSCF        .... off
 Level Shifting         CNVShift        .... on
   Level shift para.    LevelShift      ....    0.2500
   Turn off err/grad.   ShiftErr        ....    0.0010
 Zerner damping         CNVZerner       .... off
 Static damping         CNVDamp         .... on
   Fraction old density DampFac         ....    0.7000
   Max. Damping (<1)    DampMax         ....    0.9800
   Min. Damping (>=0)   DampMin         ....    0.0000
   Turn off err/grad.   DampErr         ....    0.1000
 Fernandez-Rico         CNVRico         .... off

SCF Procedure:
 Maximum # iterations   MaxIter         ....   125
 SCF integral mode      SCFMode         .... Direct
   Integral package                     .... LIBINT
 Reset frequency        DirectResetFreq ....    20
 Integral Threshold     Thresh          ....  2.500e-11 Eh
 Primitive CutOff       TCut            ....  2.500e-12 Eh

Convergence Tolerance:
 Convergence Check Mode ConvCheckMode   .... Total+1el-Energy
 Convergence forced     ConvForced      .... 0
 Energy Change          TolE            ....  1.000e-08 Eh
 1-El. energy change                    ....  1.000e-05 Eh
 DIIS Error             TolErr          ....  5.000e-07


Diagonalization of the overlap matrix:
Smallest eigenvalue                        ... 3.932e-02
Time for diagonalization                   ...    0.001 sec
Threshold for overlap eigenvalues          ... 1.000e-08
Number of eigenvalues below threshold      ... 0
Time for construction of square roots      ...    0.000 sec
Total time needed                          ...    0.001 sec

-------------------
DFT GRID GENERATION
-------------------

General Integration Accuracy     IntAcc      ...  4.340
Radial Grid Type                 RadialGrid  ... Gauss-Chebyshev
Angular Grid (max. acc.)         AngularGrid ... Lebedev-110
Angular grid pruning method      GridPruning ... 3 (G Style)
Weight generation scheme         WeightScheme... Becke
Basis function cutoff            BFCut       ...    1.0000e-11
Integration weight cutoff        WCut        ...    1.0000e-14
Grids for H and He will be reduced by one unit

# of grid points (after initial pruning)     ...   3418 (   0.0 sec)
# of grid points (after weights+screening)   ...   3396 (   0.0 sec)
nearest neighbour list constructed           ...    0.0 sec
Grid point re-assignment to atoms done       ...    0.0 sec
Grid point division into batches done        ...    0.0 sec
Reduced shell lists constructed in    0.0 sec

Total number of grid points                  ...     3396
Total number of batches                      ...       54
Average number of points per batch           ...       62
Average number of grid points per atom       ...     1698
Average number of shells per batch           ...    10.20 (85.00%)
Average number of basis functions per batch  ...    23.93 (85.48%)
Average number of large shells per batch     ...     7.47 (73.20%)
Average number of large basis fcns per batch ...    17.07 (71.31%)
Maximum spatial batch extension              ...  14.25, 19.31, 25.65 au
Average spatial batch extension              ...   2.36,  2.46,  2.80 au

Time for grid setup =    0.008 sec

------------------------------
INITIAL GUESS: MODEL POTENTIAL
------------------------------
Loading Hartree-Fock densities                     ... done
Calculating cut-offs                               ... done
Setting up the integral package                    ... done
Initializing the effective Hamiltonian             ... done
Starting the Coulomb interaction                   ... done (   0.0 sec)
Reading the grid                                   ... done
Mapping shells                                     ... done
Starting the XC term evaluation                    ... done (   0.0 sec)
  promolecular density results
     # of electrons  =     15.000003212
     EX              =    -14.534471284
     EC              =     -0.518293120
     EX+EC           =    -15.052764404
Transforming the Hamiltonian                       ... done (   0.0 sec)
Diagonalizing the Hamiltonian                      ... done (   0.0 sec)
Back transforming the eigenvectors                 ... done (   0.0 sec)
Now organizing SCF variables                       ... done
                      ------------------
                      INITIAL GUESS DONE (   0.1 sec)
                      ------------------
--------------
SCF ITERATIONS
--------------
ITER       Energy         Delta-E        Max-DP      RMS-DP      [F,P]     Damp
               ***  Starting incremental Fock matrix formation  ***
  0   -129.6273716108   0.000000000000 0.06492614  0.00557070  0.3409874 0.7000
  1   -129.6691258145  -0.041754203662 0.01513111  0.00113475  0.0680514 0.7000
                               ***Turning on DIIS***
  2   -129.6747756715  -0.005649856994 0.01619496  0.00147441  0.1126446 0.7000
  3   -129.6898577558  -0.015082084258 0.02852625  0.00191076  0.0125837 0.0000
  4   -129.7066221328  -0.016764377031 0.00279329  0.00024495  0.1111403 0.7000
  5   -129.7088357603  -0.002213627493 0.01164685  0.00094363  0.0939344 0.0000
  6   -129.7142995909  -0.005463830607 0.00549386  0.00034554  0.0280895 0.0000
  7   -129.7148654317  -0.000565840765 0.00617998  0.00030615  0.0149864 0.0000
  8   -129.7151193600  -0.000253928354 0.00571284  0.00029586  0.0073531 0.0000
  9   -129.7152881083  -0.000168748316 0.00635489  0.00033412  0.0042665 0.0000
 10   -129.7154724001  -0.000184291750 0.00784775  0.00042674  0.0029571 0.0000
 11   -129.7157235044  -0.000251104365 0.01074007  0.00059110  0.0022406 0.0000
 12   -129.7161093299  -0.000385825472 0.01249001  0.00070195  0.0017313 0.0000
 13   -129.7166265165  -0.000517186596 0.00820595  0.00047167  0.0012503 0.0000
 14   -129.7170096022  -0.000383085680 0.00557695  0.00031991  0.0015219 0.0000
 15   -129.7172806565  -0.000271054285 0.00271487  0.00015621  0.0018963 0.0000
 16   -129.7174128350  -0.000132178501 0.00043171  0.00003218  0.0021957 0.0000
 17   -129.7174004630   0.000012372016 0.00124262  0.00006784  0.0024898 0.0000
 18   -129.7174598695  -0.000059406580 0.00239418  0.00013583  0.0027187 0.0000
 19   -129.7175810129  -0.000121143375 0.00161998  0.00009440  0.0028481 0.0000
               *** Restarting incremental Fock matrix formation ***
                                   *** Resetting DIIS ***
 20   -129.7176656215  -0.000084608597 0.00756293  0.00043607  0.0028325 0.0000
 21   -129.7180429269  -0.000377305351 0.00583766  0.00030426  0.0058659 0.0000
 22   -129.7183411688  -0.000298241963 0.00534941  0.00028626  0.0019590 0.0000
 23   -129.7186127944  -0.000271625599 0.00055308  0.00004278  0.0021621 0.0000
 24   -129.7186178332  -0.000005038747 0.00041449  0.00002015  0.0031102 0.0000
 25   -129.7186006218   0.000017211386 0.00637367  0.00035764  0.0039939 0.0000
 26   -129.7189506248  -0.000350003021 0.00351381  0.00019441  0.0036542 0.0000
 27   -129.7191363068  -0.000185681957 0.00063133  0.00003552  0.0040733 0.0000
 28   -129.7191108460   0.000025460728 0.00263321  0.00013518  0.0049718 0.0000
 29   -129.7189893637   0.000121482354 0.00516680  0.00031581  0.0031107 0.0000
 30   -129.7193037979  -0.000314434237 0.00819668  0.00043855  0.0018875 0.0000
 31   -129.7197284190  -0.000424621052 0.00483182  0.00025883  0.0024134 0.0000
 32   -129.7199722682  -0.000243849244 0.00098057  0.00005224  0.0030393 0.0000
 33   -129.7199361866   0.000036081572 0.00126427  0.00006434  0.0046586 0.0000
 34   -129.7199948210  -0.000058634330 0.00248718  0.00013476  0.0050923 0.0000
 35   -129.7201239079  -0.000129086936 0.00313422  0.00017325  0.0050942 0.0000
 36   -129.7202889959  -0.000165088007 0.00147474  0.00009065  0.0049626 0.0000
 37   -129.7203760610  -0.000087065101 0.01327001  0.00077303  0.0041261 0.0000
 38   -129.7210748074  -0.000698746348 0.00525745  0.00026859  0.0028849 0.0000
 39   -129.7212977716  -0.000222964248 0.00506566  0.00026470  0.0023017 0.0000
               *** Restarting incremental Fock matrix formation ***
                                   *** Resetting DIIS ***
 40   -129.7215090769  -0.000211305311 0.00539726  0.00035353  0.0027991 0.0000
 41   -129.7217664122  -0.000257335308 0.00500384  0.00024334  0.0042747 0.0000
 42   -129.7219429401  -0.000176527835 0.00749055  0.00039353  0.0018210 0.0000
 43   -129.7221979202  -0.000254980092 0.01049457  0.00057110  0.0018034 0.0000
 44   -129.7225038494  -0.000305929234 0.00782891  0.00042261  0.0014642 0.0000
 45   -129.7226780179  -0.000174168473 0.01050255  0.00058230  0.0014178 0.0000
 46   -129.7228221221  -0.000144104261 0.00251757  0.00015169  0.0022183 0.0000
 47   -129.7228149943   0.000007127803 0.00725928  0.00041404  0.0012370 0.0000
 48   -129.7228662042  -0.000051209878 0.00320137  0.00017682  0.0012649 0.0000
 49   -129.7228735582  -0.000007354030 0.00087407  0.00005179  0.0015120 0.0000
 50   -129.7228758883  -0.000002330027 0.00051159  0.00003196  0.0008017 0.0000
 51   -129.7228769910  -0.000001102717 0.00016987  0.00001038  0.0001197 0.0000
 52   -129.7228771127  -0.000000121722 0.00009458  0.00000692  0.0001293 0.0000
 53   -129.7228771844  -0.000000071684 0.00007003  0.00000462  0.0000630 0.0000
 54   -129.7228772175  -0.000000033093 0.00009034  0.00000541  0.0000426 0.0000
 55   -129.7228772449  -0.000000027412 0.00012022  0.00000716  0.0000262 0.0000
 56   -129.7228772638  -0.000000018877 0.00004628  0.00000255  0.0000060 0.0000
                 **** Energy Check signals convergence ****

               *****************************************************
               *                     SUCCESS                       *
               *           SCF CONVERGED AFTER  57 CYCLES          *
               *****************************************************

Setting up the final grid:

General Integration Accuracy     IntAcc      ...  4.670
Radial Grid Type                 RadialGrid  ... Gauss-Chebyshev
Angular Grid (max. acc.)         AngularGrid ... Lebedev-302
Angular grid pruning method      GridPruning ... 3 (G Style)
Weight generation scheme         WeightScheme... Becke
Basis function cutoff            BFCut       ...    1.0000e-11
Integration weight cutoff        WCut        ...    1.0000e-14
Grids for H and He will be reduced by one unit

# of grid points (after initial pruning)     ...  12424 (   0.0 sec)
# of grid points (after weights+screening)   ...  12398 (   0.0 sec)
nearest neighbour list constructed           ...    0.0 sec
Grid point re-assignment to atoms done       ...    0.0 sec
Grid point division into batches done        ...    0.0 sec
Reduced shell lists constructed in    0.0 sec

Total number of grid points                  ...    12398
Total number of batches                      ...      195
Average number of points per batch           ...       63
Average number of grid points per atom       ...     6199
Average number of shells per batch           ...     7.72 (64.33%)
Average number of basis functions per batch  ...    17.92 (64.00%)
Average number of large shells per batch     ...     6.38 (82.64%)
Average number of large basis fcns per batch ...    15.22 (84.93%)
Maximum spatial batch extension              ...  12.89, 19.94, 19.94 au
Average spatial batch extension              ...   1.35,  1.67,  1.58 au

Final grid set up in    0.1 sec
Final integration                            ... done (   0.0 sec)
Change in XC energy                          ...     0.000012066
Integrated number of electrons               ...    15.000005064
Previous integrated no of electrons          ...    15.000299314

----------------
TOTAL SCF ENERGY
----------------

Total Energy       :         -129.72286520 Eh           -3529.93862 eV

Components:
Nuclear Repulsion  :           19.24280757 Eh             523.62341 eV
Electronic Energy  :         -148.96567277 Eh           -4053.56204 eV
One Electron Energy:         -215.41354309 Eh           -5861.70051 eV
Two Electron Energy:           66.44787031 Eh            1808.13848 eV

Virial components:
Potential Energy   :         -258.40118759 Eh           -7031.45379 eV
Kinetic Energy     :          128.67832239 Eh            3501.51517 eV
Virial Ratio       :            2.00811747


DFT components:
N(Alpha)           :        8.000002637524 electrons
N(Beta)            :        7.000002426377 electrons
N(Total)           :       15.000005063900 electrons
E(X)               :      -11.621111245104 Eh       
E(C)               :       -0.600741970028 Eh       
E(XC)              :      -12.221853215132 Eh       
DFET-embed. en.    :        0.000000000000 Eh       

---------------
SCF CONVERGENCE
---------------

  Last Energy change         ...   -2.0235e-09  Tolerance :   1.0000e-08
  Last MAX-Density change    ...    1.4937e-05  Tolerance :   1.0000e-07
  Last RMS-Density change    ...    8.9010e-07  Tolerance :   5.0000e-09
  Last DIIS Error            ...    2.6083e-06  Tolerance :   5.0000e-07

             **** THE GBW FILE WAS UPDATED (nitrogen_monoxide_B3LYP_cc-pVDZ_OPT.gbw) ****
             **** DENSITY FILE WAS UPDATED (nitrogen_monoxide_B3LYP_cc-pVDZ_OPT.scfp) ****
             **** ENERGY FILE WAS UPDATED (nitrogen_monoxide_B3LYP_cc-pVDZ_OPT.en.tmp) ****
----------------------
UHF SPIN CONTAMINATION
----------------------

Warning: in a DFT calculation there is little theoretical justification to 
         calculate <S**2> as in Hartree-Fock theory. We will do it anyways
         but you should keep in mind that the values have only limited relevance

Expectation value of <S**2>     :     1.215588
Ideal value S*(S+1) for S=0.5   :     0.750000
Deviation                       :     0.465588

             **** THE GBW FILE WAS UPDATED (nitrogen_monoxide_B3LYP_cc-pVDZ_OPT.gbw) ****
             **** DENSITY FILE WAS UPDATED (nitrogen_monoxide_B3LYP_cc-pVDZ_OPT.scfp) ****
----------------
ORBITAL ENERGIES
----------------
                 SPIN UP ORBITALS
  NO   OCC          E(Eh)            E(eV) 
   0   1.0000     -19.255647      -523.9728 
   1   1.0000     -14.507209      -394.7612 
   2   1.0000      -1.012016       -27.5384 
   3   1.0000      -0.754365       -20.5273 
   4   1.0000      -0.430299       -11.7090 
   5   1.0000      -0.424719       -11.5572 
   6   1.0000      -0.394461       -10.7338 
   7   1.0000      -0.295522        -8.0416 
   8   0.0000      -0.176558        -4.8044 
   9   0.0000       0.003122         0.0850 
  10   0.0000       0.649746        17.6805 
  11   0.0000       0.653140        17.7729 
  12   0.0000       0.657250        17.8847 
  13   0.0000       0.817056        22.2332 
  14   0.0000       0.915546        24.9133 
  15   0.0000       0.942428        25.6448 
  16   0.0000       0.963366        26.2145 
  17   0.0000       1.507855        41.0308 
  18   0.0000       1.646162        44.7944 
  19   0.0000       1.648682        44.8629 
  20   0.0000       1.648691        44.8632 
  21   0.0000       1.649155        44.8758 
  22   0.0000       1.913796        52.0770 
  23   0.0000       2.563235        69.7492 
  24   0.0000       2.568059        69.8804 
  25   0.0000       2.710562        73.7581 
  26   0.0000       2.722250        74.0762 
  27   0.0000       3.250256        88.4440 

                 SPIN DOWN ORBITALS
  NO   OCC          E(Eh)            E(eV) 
   0   1.0000     -19.269767      -524.3570 
   1   1.0000     -14.473907      -393.8550 
   2   1.0000      -1.026189       -27.9240 
   3   1.0000      -0.684093       -18.6151 
   4   1.0000      -0.425894       -11.5892 
   5   1.0000      -0.418970       -11.4008 
   6   1.0000      -0.366247        -9.9661 
   7   0.0000      -0.141742        -3.8570 
   8   0.0000      -0.119272        -3.2455 
   9   0.0000       0.023689         0.6446 
  10   0.0000       0.679086        18.4789 
  11   0.0000       0.713468        19.4145 
  12   0.0000       0.729010        19.8374 
  13   0.0000       0.853415        23.2226 
  14   0.0000       0.889563        24.2062 
  15   0.0000       0.927580        25.2407 
  16   0.0000       0.962315        26.1859 
  17   0.0000       1.496362        40.7181 
  18   0.0000       1.690643        46.0047 
  19   0.0000       1.708699        46.4961 
  20   0.0000       1.760950        47.9179 
  21   0.0000       1.761094        47.9218 
  22   0.0000       1.942850        52.8676 
  23   0.0000       2.522756        68.6477 
  24   0.0000       2.523567        68.6697 
  25   0.0000       2.675623        72.8074 
  26   0.0000       2.719755        74.0083 
  27   0.0000       3.244515        88.2877 

                    ********************************
                    * MULLIKEN POPULATION ANALYSIS *
                    ********************************

--------------------------------------------
MULLIKEN ATOMIC CHARGES AND SPIN POPULATIONS
--------------------------------------------
   0 N :    0.119158    1.605623
   1 O :   -0.119158   -0.605623
Sum of atomic charges         :   -0.0000000
Sum of atomic spin populations:    1.0000000

-----------------------------------------------------
MULLIKEN REDUCED ORBITAL CHARGES AND SPIN POPULATIONS
-----------------------------------------------------
CHARGE
  0 N s       :     3.941374  s :     3.941374
      pz      :     0.858019  p :     2.917424
      px      :     0.895728
      py      :     1.163677
      dz2     :     0.003157  d :     0.022044
      dxz     :     0.004007
      dyz     :     0.000000
      dx2y2   :     0.009765
      dxy     :     0.005114
  1 O s       :     3.951824  s :     3.951824
      pz      :     1.136267  p :     4.158475
      px      :     1.192662
      py      :     1.829546
      dz2     :     0.001476  d :     0.008859
      dxz     :     0.001707
      dyz     :     0.000000
      dx2y2   :     0.004013
      dxy     :     0.001663

SPIN
  0 N s       :     0.015202  s :     0.015202
      pz      :     0.663241  p :     1.591008
      px      :     0.089931
      py      :     0.837837
      dz2     :    -0.000053  d :    -0.000587
      dxz     :    -0.000635
      dyz     :    -0.000000
      dx2y2   :     0.000223
      dxy     :    -0.000123
  1 O s       :    -0.004409  s :    -0.004409
      pz      :    -0.663241  p :    -0.602136
      px      :    -0.100949
      py      :     0.162054
      dz2     :    -0.000092  d :     0.000922
      dxz     :     0.000634
      dyz     :    -0.000000
      dx2y2   :     0.000146
      dxy     :     0.000233


                     *******************************
                     * LOEWDIN POPULATION ANALYSIS *
                     *******************************

-------------------------------------------
LOEWDIN ATOMIC CHARGES AND SPIN POPULATIONS
-------------------------------------------
   0 N :    0.070256    1.567604
   1 O :   -0.070256   -0.567604

----------------------------------------------------
LOEWDIN REDUCED ORBITAL CHARGES AND SPIN POPULATIONS
----------------------------------------------------
CHARGE
  0 N s       :     3.854063  s :     3.854063
      pz      :     0.859662  p :     3.036173
      px      :     1.008468
      py      :     1.168042
      dz2     :     0.006308  d :     0.039509
      dxz     :     0.005577
      dyz     :     0.000000
      dx2y2   :     0.018972
      dxy     :     0.008652
  1 O s       :     3.838874  s :     3.838874
      pz      :     1.132720  p :     4.218311
      px      :     1.264619
      py      :     1.820972
      dz2     :     0.002332  d :     0.013071
      dxz     :     0.002041
      dyz     :     0.000000
      dx2y2   :     0.006364
      dxy     :     0.002334

SPIN
  0 N s       :     0.011849  s :     0.011849
      pz      :     0.650933  p :     1.557788
      px      :     0.076657
      py      :     0.830198
      dz2     :    -0.000245  d :    -0.002033
      dxz     :    -0.002158
      dyz     :    -0.000000
      dx2y2   :    -0.000206
      dxy     :     0.000576
  1 O s       :    -0.001233  s :    -0.001233
      pz      :    -0.649915  p :    -0.568976
      px      :    -0.087261
      py      :     0.168200
      dz2     :    -0.000142  d :     0.002605
      dxz     :     0.001140
      dyz     :    -0.000000
      dx2y2   :     0.000581
      dxy     :     0.001026


                      *****************************
                      * MAYER POPULATION ANALYSIS *
                      *****************************

  NA   - Mulliken gross atomic population
  ZA   - Total nuclear charge
  QA   - Mulliken gross atomic charge
  VA   - Mayer's total valence
  BVA  - Mayer's bonded valence
  FA   - Mayer's free valence

  ATOM       NA         ZA         QA         VA         BVA        FA
  0 N      6.8808     7.0000     0.1192     2.9122     1.7445     1.1677
  1 O      8.1192     8.0000    -0.1192     2.2272     1.7445     0.4826

  Mayer bond orders larger than 0.100000
B(  0-N ,  1-O ) :   1.7445 

-------
TIMINGS
-------

Total SCF time: 0 days 0 hours 0 min 5 sec 

Total time                  ....       5.909 sec
Sum of individual times     ....       5.739 sec  ( 97.1%)

Fock matrix formation       ....       5.567 sec  ( 94.2%)
  XC integration            ....       0.188 sec  (  3.4% of F)
    Basis function eval.    ....       0.047 sec  ( 24.8% of XC)
    Density eval.           ....       0.029 sec  ( 15.4% of XC)
    XC-Functional eval.     ....       0.037 sec  ( 19.9% of XC)
    XC-Potential eval.      ....       0.027 sec  ( 14.5% of XC)
Diagonalization             ....       0.014 sec  (  0.2%)
Density matrix formation    ....       0.003 sec  (  0.0%)
Population analysis         ....       0.001 sec  (  0.0%)
Initial guess               ....       0.070 sec  (  1.2%)
Orbital Transformation      ....       0.000 sec  (  0.0%)
Orbital Orthonormalization  ....       0.000 sec  (  0.0%)
DIIS solution               ....       0.007 sec  (  0.1%)
Grid generation             ....       0.077 sec  (  1.3%)

-------------------------   --------------------
FINAL SINGLE POINT ENERGY      -129.722865199528
-------------------------   --------------------



           ************************************************************
           *        Program running with 4 parallel MPI-processes     *
           *              working on a common directory               *
           ************************************************************
------------------------------------------------------------------------------
                         ORCA SCF GRADIENT CALCULATION
------------------------------------------------------------------------------

Gradient of the Kohn-Sham DFT energy:
Kohn-Sham wavefunction type      ... UKS
Hartree-Fock exchange scaling    ...    0.200
Number of operators              ...    2
Number of atoms                  ...    2
Basis set dimensions             ...   28
Integral neglect threshold       ... 2.5e-11
Integral primitive cutoff        ... 2.5e-12

Nuclear repulsion gradient       ... done
One Electron Gradient            ... done
Pre-screening matrix             ... done
Starting the two electron gradient:
Two electron gradient done
Exchange-correlation gradient    ... done

------------------
CARTESIAN GRADIENT
------------------

   1   N   :   -0.172763167    0.000000000    0.000000000
   2   O   :    0.172763167   -0.000000000   -0.000000000

Difference to translation invariance:
           :    0.0000000000   -0.0000000000    0.0000000000

Norm of the cartesian gradient     ...    0.2443240140
RMS gradient                       ...    0.0997448610
MAX gradient                       ...    0.1727631671

-------
TIMINGS
-------

Total SCF gradient time            ...        0.133 sec

One electron gradient       ....       0.000 sec  (  0.4%)
Prescreening matrices       ....       0.004 sec  (  3.2%)
Two electron gradient       ....       0.020 sec  ( 14.7%)
XC gradient                 ....       0.019 sec  ( 14.4%)
------------------------------------------------------------------------------
                         ORCA GEOMETRY RELAXATION STEP
------------------------------------------------------------------------------

Reading the OPT-File                    .... done
Getting information on internals        .... done
Copying old internal coords+grads       .... done
Making the new internal coordinates     .... (new redundants).... done
Validating the new internal coordinates .... (new redundants).... done
Calculating the B-matrix                .... done
Calculating the G,G- and P matrices     .... done
Transforming gradient to internals      .... done
Projecting the internal gradient        .... done
Number of atoms                         ....   2
Number of internal coordinates          ....   1
Current Energy                          ....  -129.722865200 Eh
Current gradient norm                   ....     0.244324014 Eh/bohr
Maximum allowed component of the step   ....  0.300
Current trust radius                    ....  0.300
Evaluating the initial hessian          ....  (Almloef) done
Projecting the Hessian                  .... done
Forming the augmented Hessian           .... done
Diagonalizing the augmented Hessian     .... done
Last element of RFO vector              ....  0.905924749
Lowest eigenvalues of augmented Hessian:
 -0.080751314
Length of the computed step             ....  0.467410476
Warning: the length of the step is outside the trust region - taking restricted step instead
The input lambda is                     ....    -0.080751
   iter:   1  x=   -0.189428  g=    1.182154 f(x)=     0.128473
   iter:   2  x=   -0.263609  g=    0.545565 f(x)=     0.040470
   iter:   3  x=   -0.285604  g=    0.353993 f(x)=     0.007786
   iter:   4  x=   -0.287006  g=    0.314869 f(x)=     0.000441
   iter:   5  x=   -0.287011  g=    0.312575 f(x)=     0.000002
   iter:   6  x=   -0.287011  g=    0.312567 f(x)=     0.000000
   iter:   7  x=   -0.287011  g=    0.312567 f(x)=    -0.000000
The output lambda is                    ....    -0.287011 (7 iterations)
The final length of the internal step   ....  0.300000000
Converting the step to cartesian space:
 Initial RMS(Int)=    0.3000000000
Transforming coordinates:
 Iter   0:  RMS(Cart)=    0.0866025404 RMS(Int)=    0.3000000000
 Iter   1:  RMS(Cart)=    0.0000000000 RMS(Int)=    0.0000000000
done
Storing new coordinates                 .... done

                                .--------------------.
          ----------------------|Geometry convergence|-------------------------
          Item                value                   Tolerance       Converged
          ---------------------------------------------------------------------
          RMS gradient        0.1727631671            0.0001000000      NO
          MAX gradient        0.1727631671            0.0003000000      NO
          RMS step            0.3000000000            0.0020000000      NO
          MAX step            0.3000000000            0.0040000000      NO
          ........................................................
          Max(Bonds)      0.1588      Max(Angles)    0.00
          Max(Dihed)        0.00      Max(Improp)    0.00
          ---------------------------------------------------------------------

The optimization has not yet converged - more geometry cycles are needed


    ---------------------------------------------------------------------------
                         Redundant Internal Coordinates
                            (Angstroem and degrees)

        Definition                    Value    dE/dq     Step     New-Value
    ----------------------------------------------------------------------------
     1. B(O   1,N   0)                1.5400  0.172763 -0.1588    1.3812   
    ----------------------------------------------------------------------------

         *************************************************************
         *                GEOMETRY OPTIMIZATION CYCLE   2            *
         *************************************************************
---------------------------------
CARTESIAN COORDINATES (ANGSTROEM)
---------------------------------
  N    -28.003953   12.166670    0.000000
  O    -26.622707   12.166670    0.000000

----------------------------
CARTESIAN COORDINATES (A.U.)
----------------------------
  NO LB      ZA    FRAG     MASS         X           Y           Z
   0 N     7.0000    0    14.007  -52.919803   22.991674    0.000000
   1 O     8.0000    0    15.999  -50.309624   22.991674    0.000000

--------------------------------
INTERNAL COORDINATES (ANGSTROEM)
--------------------------------
 N      0   0   0     0.000000000000     0.00000000     0.00000000
 O      1   0   0     1.381246837510     0.00000000     0.00000000

---------------------------
INTERNAL COORDINATES (A.U.)
---------------------------
 N      0   0   0     0.000000000000     0.00000000     0.00000000
 O      1   0   0     2.610178246239     0.00000000     0.00000000



           ************************************************************
           *        Program running with 4 parallel MPI-processes     *
           *              working on a common directory               *
           ************************************************************


           ************************************************************
           *        Program running with 4 parallel MPI-processes     *
           *              working on a common directory               *
           ************************************************************

Diagonalization of the overlap matrix:
Smallest eigenvalue                        ... 2.622e-02
Time for diagonalization                   ...    0.000 sec
Threshold for overlap eigenvalues          ... 1.000e-08
Number of eigenvalues below threshold      ... 0
Time for construction of square roots      ...    0.000 sec
Total time needed                          ...    0.001 sec

-------------------
DFT GRID GENERATION
-------------------

General Integration Accuracy     IntAcc      ...  4.340
Radial Grid Type                 RadialGrid  ... Gauss-Chebyshev
Angular Grid (max. acc.)         AngularGrid ... Lebedev-110
Angular grid pruning method      GridPruning ... 3 (G Style)
Weight generation scheme         WeightScheme... Becke
Basis function cutoff            BFCut       ...    1.0000e-11
Integration weight cutoff        WCut        ...    1.0000e-14
Grids for H and He will be reduced by one unit

# of grid points (after initial pruning)     ...   3418 (   0.0 sec)
# of grid points (after weights+screening)   ...   3394 (   0.0 sec)
nearest neighbour list constructed           ...    0.0 sec
Grid point re-assignment to atoms done       ...    0.0 sec
Grid point division into batches done        ...    0.0 sec
Reduced shell lists constructed in    0.0 sec

Total number of grid points                  ...     3394
Total number of batches                      ...       55
Average number of points per batch           ...       61
Average number of grid points per atom       ...     1697
Average number of shells per batch           ...    10.47 (87.22%)
Average number of basis functions per batch  ...    24.47 (87.38%)
Average number of large shells per batch     ...     7.93 (75.80%)
Average number of large basis fcns per batch ...    18.47 (75.48%)
Maximum spatial batch extension              ...  14.11, 19.31, 25.65 au
Average spatial batch extension              ...   2.25,  2.47,  2.84 au

Time for grid setup =    0.007 sec

--------------
SCF ITERATIONS
--------------
ITER       Energy         Delta-E        Max-DP      RMS-DP      [F,P]     Damp
               ***  Starting incremental Fock matrix formation  ***
  0   -129.7634602319   0.000000000000 0.00714495  0.00074223  0.0540684 0.7000
  1   -129.7669152509  -0.003455018978 0.00723185  0.00071824  0.0409275 0.7000
                               ***Turning on DIIS***
  2   -129.7697575521  -0.002842301212 0.02251580  0.00204233  0.0297991 0.0000
  3   -129.7780725734  -0.008315021325 0.01499472  0.00079093  0.0066676 0.0000
  4   -129.7793589175  -0.001286344071 0.01145726  0.00062266  0.0047886 0.0000
  5   -129.7802167838  -0.000857866359 0.00904855  0.00053288  0.0049295 0.0000
  6   -129.7808517905  -0.000635006682 0.01755464  0.00094877  0.0033161 0.0000
  7   -129.7817577544  -0.000905963875 0.01349520  0.00073956  0.0023658 0.0000
  8   -129.7822977720  -0.000540017564 0.01643012  0.00093551  0.0017600 0.0000
  9   -129.7827868322  -0.000489060245 0.00723022  0.00040646  0.0026016 0.0000
 10   -129.7829589907  -0.000172158528 0.01037167  0.00058697  0.0014938 0.0000
 11   -129.7831372790  -0.000178288228 0.00557880  0.00031611  0.0016237 0.0000
 12   -129.7832147308  -0.000077451841 0.01024903  0.00058927  0.0006124 0.0000
 13   -129.7833095694  -0.000094838638 0.00341184  0.00018980  0.0002997 0.0000
 14   -129.7833286296  -0.000019060121 0.00112293  0.00006478  0.0001502 0.0000
 15   -129.7833339412  -0.000005311611 0.00020271  0.00001197  0.0001170 0.0000
 16   -129.7833348326  -0.000000891438 0.00039146  0.00002246  0.0001507 0.0000
 17   -129.7833330995   0.000001733128 0.00034889  0.00001979  0.0001736 0.0000
 18   -129.7833315252   0.000001574246 0.00180606  0.00010332  0.0002066 0.0000
 19   -129.7833391746  -0.000007649341 0.00114429  0.00006402  0.0000960 0.0000
               *** Restarting incremental Fock matrix formation ***
                                   *** Resetting DIIS ***
 20   -129.7833431327  -0.000003958068 0.00081666  0.00004676  0.0001215 0.0000
 21   -129.7833455589  -0.000002426200 0.00025582  0.00001182  0.0003843 0.0000
 22   -129.7833461320  -0.000000573119 0.00083142  0.00004724  0.0001105 0.0000
 23   -129.7833483202  -0.000002188267 0.00163650  0.00009234  0.0000899 0.0000
 24   -129.7833517004  -0.000003380201 0.00335298  0.00018889  0.0000646 0.0000
 25   -129.7833549916  -0.000003291132 0.00047360  0.00002615  0.0000554 0.0000
 26   -129.7833550712  -0.000000079585 0.00028191  0.00001571  0.0000067 0.0000
 27   -129.7833550740  -0.000000002833 0.00002330  0.00000134  0.0000043 0.0000
                 **** Energy Check signals convergence ****

               *****************************************************
               *                     SUCCESS                       *
               *           SCF CONVERGED AFTER  28 CYCLES          *
               *****************************************************

Setting up the final grid:

General Integration Accuracy     IntAcc      ...  4.670
Radial Grid Type                 RadialGrid  ... Gauss-Chebyshev
Angular Grid (max. acc.)         AngularGrid ... Lebedev-302
Angular grid pruning method      GridPruning ... 3 (G Style)
Weight generation scheme         WeightScheme... Becke
Basis function cutoff            BFCut       ...    1.0000e-11
Integration weight cutoff        WCut        ...    1.0000e-14
Grids for H and He will be reduced by one unit

# of grid points (after initial pruning)     ...  12424 (   0.0 sec)
# of grid points (after weights+screening)   ...  12398 (   0.0 sec)
nearest neighbour list constructed           ...    0.0 sec
Grid point re-assignment to atoms done       ...    0.0 sec
Grid point division into batches done        ...    0.0 sec
Reduced shell lists constructed in    0.0 sec

Total number of grid points                  ...    12398
Total number of batches                      ...      195
Average number of points per batch           ...       63
Average number of grid points per atom       ...     6199
Average number of shells per batch           ...     8.06 (67.17%)
Average number of basis functions per batch  ...    18.78 (67.07%)
Average number of large shells per batch     ...     6.40 (79.40%)
Average number of large basis fcns per batch ...    15.24 (81.15%)
Maximum spatial batch extension              ...  12.89, 19.94, 19.94 au
Average spatial batch extension              ...   1.34,  1.70,  1.61 au

Final grid set up in    0.0 sec
Final integration                            ... done (   0.0 sec)
Change in XC energy                          ...     0.000021094
Integrated number of electrons               ...    15.000003300
Previous integrated no of electrons          ...    15.000111744
Total Energy       :         -129.78333398 Eh           -3531.58406 eV
  Last Energy change         ...    1.1967e-09  Tolerance :   1.0000e-08
  Last MAX-Density change    ...    5.3985e-05  Tolerance :   1.0000e-07
             **** THE GBW FILE WAS UPDATED (nitrogen_monoxide_B3LYP_cc-pVDZ_OPT.gbw) ****
             **** DENSITY FILE WAS UPDATED (nitrogen_monoxide_B3LYP_cc-pVDZ_OPT.scfp) ****
             **** ENERGY FILE WAS UPDATED (nitrogen_monoxide_B3LYP_cc-pVDZ_OPT.en.tmp) ****
----------------------
UHF SPIN CONTAMINATION
----------------------

Warning: in a DFT calculation there is little theoretical justification to 
         calculate <S**2> as in Hartree-Fock theory. We will do it anyways
         but you should keep in mind that the values have only limited relevance

Expectation value of <S**2>     :     0.768736
Ideal value S*(S+1) for S=0.5   :     0.750000
Deviation                       :     0.018736

             **** THE GBW FILE WAS UPDATED (nitrogen_monoxide_B3LYP_cc-pVDZ_OPT.gbw) ****
             **** DENSITY FILE WAS UPDATED (nitrogen_monoxide_B3LYP_cc-pVDZ_OPT.scfp) ****
Total SCF time: 0 days 0 hours 0 min 3 sec 

-------------------------   --------------------
FINAL SINGLE POINT ENERGY      -129.783333978389
-------------------------   --------------------



           ************************************************************
           *        Program running with 4 parallel MPI-processes     *
           *              working on a common directory               *
           ************************************************************
------------------------------------------------------------------------------
                         ORCA SCF GRADIENT CALCULATION
------------------------------------------------------------------------------

Gradient of the Kohn-Sham DFT energy:
Kohn-Sham wavefunction type      ... UKS
Hartree-Fock exchange scaling    ...    0.200
Number of operators              ...    2
Number of atoms                  ...    2
Basis set dimensions             ...   28
Integral neglect threshold       ... 2.5e-11
Integral primitive cutoff        ... 2.5e-12

Nuclear repulsion gradient       ... done
One Electron Gradient            ... done
Pre-screening matrix             ... done
Starting the two electron gradient:
Two electron gradient done
Exchange-correlation gradient    ... done

------------------
CARTESIAN GRADIENT
------------------

   1   N   :   -0.216496259   -0.000000000    0.000000000
   2   O   :    0.216496259   -0.000000000   -0.000000000

Difference to translation invariance:
           :    0.0000000000   -0.0000000000    0.0000000000

Norm of the cartesian gradient     ...    0.3061719459
RMS gradient                       ...    0.1249941735
MAX gradient                       ...    0.2164962592

-------
TIMINGS
-------

Total SCF gradient time            ...        0.159 sec

One electron gradient       ....       0.002 sec  (  1.1%)
Prescreening matrices       ....       0.004 sec  (  2.8%)
Two electron gradient       ....       0.027 sec  ( 17.0%)
XC gradient                 ....       0.020 sec  ( 12.6%)
------------------------------------------------------------------------------
                         ORCA GEOMETRY RELAXATION STEP
------------------------------------------------------------------------------

Reading the OPT-File                    .... done
Getting information on internals        .... done
Copying old internal coords+grads       .... done
Making the new internal coordinates     .... (new redundants).... done
Validating the new internal coordinates .... (new redundants).... done
Calculating the B-matrix                .... done
Calculating the G,G- and P matrices     .... done
Transforming gradient to internals      .... done
Projecting the internal gradient        .... done
Number of atoms                         ....   2
Number of internal coordinates          ....   1
Current Energy                          ....  -129.783333978 Eh
Current gradient norm                   ....     0.306171946 Eh/bohr
Maximum allowed component of the step   ....  0.300
Current trust radius                    ....  0.300
Updating the Hessian (BFGS)             .... done
Forming the augmented Hessian           .... done
Diagonalizing the augmented Hessian     .... done
Last element of RFO vector              ....  0.583491605
Lowest eigenvalues of augmented Hessian:
 -0.301325265
Length of the computed step             ....  1.391826659
Warning: the length of the step is outside the trust region - taking restricted step instead
The input lambda is                     ....    -0.301325
   iter:   1  x=   -0.375486  g=   24.907782 f(x)=     1.847181
   iter:   2  x=   -0.478703  g=    7.733857 f(x)=     0.798269
   iter:   3  x=   -0.609738  g=    2.540304 f(x)=     0.332867
   iter:   4  x=   -0.745832  g=    0.938613 f(x)=     0.127740
   iter:   5  x=   -0.838423  g=    0.433867 f(x)=     0.040172
   iter:   6  x=   -0.865706  g=    0.282096 f(x)=     0.007696
   iter:   7  x=   -0.867425  g=    0.251225 f(x)=     0.000432
   iter:   8  x=   -0.867431  g=    0.249433 f(x)=     0.000002
   iter:   9  x=   -0.867431  g=    0.249427 f(x)=     0.000000
   iter:  10  x=   -0.867431  g=    0.249427 f(x)=    -0.000000
The output lambda is                    ....    -0.867431 (10 iterations)
The final length of the internal step   ....  0.300000000
Converting the step to cartesian space:
 Initial RMS(Int)=    0.3000000000
Transforming coordinates:
 Iter   0:  RMS(Cart)=    0.0866025404 RMS(Int)=    0.3000000000
 Iter   1:  RMS(Cart)=    0.0000000000 RMS(Int)=    0.0000000000
done
Storing new coordinates                 .... done

                                .--------------------.
          ----------------------|Geometry convergence|-------------------------
          Item                value                   Tolerance       Converged
          ---------------------------------------------------------------------
          Energy change      -0.0604687789            0.0000050000      NO
          RMS gradient        0.2164962591            0.0001000000      NO
          MAX gradient        0.2164962591            0.0003000000      NO
          RMS step            0.3000000000            0.0020000000      NO
          MAX step            0.3000000000            0.0040000000      NO
          ........................................................
          Max(Bonds)      0.1588      Max(Angles)    0.00
          Max(Dihed)        0.00      Max(Improp)    0.00
          ---------------------------------------------------------------------

The optimization has not yet converged - more geometry cycles are needed


    ---------------------------------------------------------------------------
                         Redundant Internal Coordinates
                            (Angstroem and degrees)

        Definition                    Value    dE/dq     Step     New-Value
    ----------------------------------------------------------------------------
     1. B(O   1,N   0)                1.3812  0.216496 -0.1588    1.2225   
    ----------------------------------------------------------------------------

         *************************************************************
         *                GEOMETRY OPTIMIZATION CYCLE   3            *
         *************************************************************
---------------------------------
CARTESIAN COORDINATES (ANGSTROEM)
---------------------------------
  N    -27.924577   12.166670    0.000000
  O    -26.702083   12.166670    0.000000

----------------------------
CARTESIAN COORDINATES (A.U.)
----------------------------
  NO LB      ZA    FRAG     MASS         X           Y           Z
   0 N     7.0000    0    14.007  -52.769803   22.991674    0.000000
   1 O     8.0000    0    15.999  -50.459624   22.991674    0.000000

--------------------------------
INTERNAL COORDINATES (ANGSTROEM)
--------------------------------
 N      0   0   0     0.000000000000     0.00000000     0.00000000
 O      1   0   0     1.222493675020     0.00000000     0.00000000

---------------------------
INTERNAL COORDINATES (A.U.)
---------------------------
 N      0   0   0     0.000000000000     0.00000000     0.00000000
 O      1   0   0     2.310178246239     0.00000000     0.00000000



           ************************************************************
           *        Program running with 4 parallel MPI-processes     *
           *              working on a common directory               *
           ************************************************************


           ************************************************************
           *        Program running with 4 parallel MPI-processes     *
           *              working on a common directory               *
           ************************************************************

Diagonalization of the overlap matrix:
Smallest eigenvalue                        ... 1.731e-02
Time for diagonalization                   ...    0.000 sec
Threshold for overlap eigenvalues          ... 1.000e-08
Number of eigenvalues below threshold      ... 0
Time for construction of square roots      ...    0.000 sec
Total time needed                          ...    0.001 sec

-------------------
DFT GRID GENERATION
-------------------

General Integration Accuracy     IntAcc      ...  4.340
Radial Grid Type                 RadialGrid  ... Gauss-Chebyshev
Angular Grid (max. acc.)         AngularGrid ... Lebedev-110
Angular grid pruning method      GridPruning ... 3 (G Style)
Weight generation scheme         WeightScheme... Becke
Basis function cutoff            BFCut       ...    1.0000e-11
Integration weight cutoff        WCut        ...    1.0000e-14
Grids for H and He will be reduced by one unit

# of grid points (after initial pruning)     ...   3418 (   0.0 sec)
# of grid points (after weights+screening)   ...   3394 (   0.0 sec)
nearest neighbour list constructed           ...    0.0 sec
Grid point re-assignment to atoms done       ...    0.0 sec
Grid point division into batches done        ...    0.0 sec
Reduced shell lists constructed in    0.0 sec

Total number of grid points                  ...     3394
Total number of batches                      ...       55
Average number of points per batch           ...       61
Average number of grid points per atom       ...     1697
Average number of shells per batch           ...    10.73 (89.44%)
Average number of basis functions per batch  ...    25.27 (90.24%)
Average number of large shells per batch     ...     8.20 (76.40%)
Average number of large basis fcns per batch ...    19.40 (76.78%)
Maximum spatial batch extension              ...  13.85, 19.31, 25.65 au
Average spatial batch extension              ...   2.23,  2.42,  2.81 au

Time for grid setup =    0.007 sec

--------------
SCF ITERATIONS
--------------
ITER       Energy         Delta-E        Max-DP      RMS-DP      [F,P]     Damp
               ***  Starting incremental Fock matrix formation  ***
  0   -129.8212734374   0.000000000000 0.00860814  0.00091855  0.0689363 0.7000
  1   -129.8256637057  -0.004390268265 0.00805719  0.00081180  0.0487485 0.7000
                               ***Turning on DIIS***
  2   -129.8288192339  -0.003155528221 0.02089407  0.00207532  0.0341596 0.0000
  3   -129.8364499499  -0.007630715973 0.00629335  0.00047279  0.0054265 0.0000
  4   -129.8366327256  -0.000182775726 0.00277534  0.00017310  0.0026924 0.0000
  5   -129.8367010430  -0.000068317459 0.00238097  0.00011758  0.0012347 0.0000
  6   -129.8367365938  -0.000035550719 0.00211063  0.00012215  0.0011075 0.0000
  7   -129.8367675537  -0.000030959947 0.00466109  0.00025463  0.0005371 0.0000
  8   -129.8368083724  -0.000040818690 0.00211824  0.00011499  0.0001719 0.0000
  9   -129.8368166707  -0.000008298287 0.00069559  0.00003807  0.0000343 0.0000
 10   -129.8368180227  -0.000001351976 0.00031080  0.00001718  0.0000312 0.0000
 11   -129.8368184031  -0.000000380397 0.00045857  0.00002525  0.0000164 0.0000
 12   -129.8368187003  -0.000000297251 0.00012919  0.00000709  0.0000049 0.0000
 13   -129.8368187279  -0.000000027617 0.00008296  0.00000459  0.0000028 0.0000
                 **** Energy Check signals convergence ****

               *****************************************************
               *                     SUCCESS                       *
               *           SCF CONVERGED AFTER  14 CYCLES          *
               *****************************************************

Setting up the final grid:

General Integration Accuracy     IntAcc      ...  4.670
Radial Grid Type                 RadialGrid  ... Gauss-Chebyshev
Angular Grid (max. acc.)         AngularGrid ... Lebedev-302
Angular grid pruning method      GridPruning ... 3 (G Style)
Weight generation scheme         WeightScheme... Becke
Basis function cutoff            BFCut       ...    1.0000e-11
Integration weight cutoff        WCut        ...    1.0000e-14
Grids for H and He will be reduced by one unit

# of grid points (after initial pruning)     ...  12424 (   0.0 sec)
# of grid points (after weights+screening)   ...  12396 (   0.0 sec)
nearest neighbour list constructed           ...    0.0 sec
Grid point re-assignment to atoms done       ...    0.0 sec
Grid point division into batches done        ...    0.1 sec
Reduced shell lists constructed in    0.1 sec

Total number of grid points                  ...    12396
Total number of batches                      ...      195
Average number of points per batch           ...       63
Average number of grid points per atom       ...     6198
Average number of shells per batch           ...     8.08 (67.33%)
Average number of basis functions per batch  ...    19.00 (67.86%)
Average number of large shells per batch     ...     6.68 (82.67%)
Average number of large basis fcns per batch ...    16.16 (85.05%)
Maximum spatial batch extension              ...  12.08, 19.94, 19.94 au
Average spatial batch extension              ...   1.37,  1.67,  1.62 au

Final grid set up in    0.1 sec
Final integration                            ... done (   0.0 sec)
Change in XC energy                          ...    -0.000062646
Integrated number of electrons               ...    15.000002727
Previous integrated no of electrons          ...    14.999867860
Total Energy       :         -129.83688138 Eh           -3533.04116 eV
  Last Energy change         ...   -4.8483e-09  Tolerance :   1.0000e-08
  Last MAX-Density change    ...    1.1170e-06  Tolerance :   1.0000e-07
             **** THE GBW FILE WAS UPDATED (nitrogen_monoxide_B3LYP_cc-pVDZ_OPT.gbw) ****
             **** DENSITY FILE WAS UPDATED (nitrogen_monoxide_B3LYP_cc-pVDZ_OPT.scfp) ****
             **** ENERGY FILE WAS UPDATED (nitrogen_monoxide_B3LYP_cc-pVDZ_OPT.en.tmp) ****
----------------------
UHF SPIN CONTAMINATION
----------------------

Warning: in a DFT calculation there is little theoretical justification to 
         calculate <S**2> as in Hartree-Fock theory. We will do it anyways
         but you should keep in mind that the values have only limited relevance

Expectation value of <S**2>     :     0.753015
Ideal value S*(S+1) for S=0.5   :     0.750000
Deviation                       :     0.003015

             **** THE GBW FILE WAS UPDATED (nitrogen_monoxide_B3LYP_cc-pVDZ_OPT.gbw) ****
             **** DENSITY FILE WAS UPDATED (nitrogen_monoxide_B3LYP_cc-pVDZ_OPT.scfp) ****
Total SCF time: 0 days 0 hours 0 min 1 sec 

-------------------------   --------------------
FINAL SINGLE POINT ENERGY      -129.836881379004
-------------------------   --------------------



           ************************************************************
           *        Program running with 4 parallel MPI-processes     *
           *              working on a common directory               *
           ************************************************************
------------------------------------------------------------------------------
                         ORCA SCF GRADIENT CALCULATION
------------------------------------------------------------------------------

Gradient of the Kohn-Sham DFT energy:
Kohn-Sham wavefunction type      ... UKS
Hartree-Fock exchange scaling    ...    0.200
Number of operators              ...    2
Number of atoms                  ...    2
Basis set dimensions             ...   28
Integral neglect threshold       ... 2.5e-11
Integral primitive cutoff        ... 2.5e-12

Nuclear repulsion gradient       ... done
One Electron Gradient            ... done
Pre-screening matrix             ... done
Starting the two electron gradient:
Two electron gradient done
Exchange-correlation gradient    ... done

------------------
CARTESIAN GRADIENT
------------------

   1   N   :   -0.113303196    0.000000000    0.000000000
   2   O   :    0.113303196   -0.000000000   -0.000000000

Difference to translation invariance:
           :    0.0000000000   -0.0000000000    0.0000000000

Norm of the cartesian gradient     ...    0.1602349159
RMS gradient                       ...    0.0654156305
MAX gradient                       ...    0.1133031956

-------
TIMINGS
-------

Total SCF gradient time            ...        0.134 sec

One electron gradient       ....       0.001 sec  (  0.5%)
Prescreening matrices       ....       0.005 sec  (  3.4%)
Two electron gradient       ....       0.023 sec  ( 17.0%)
XC gradient                 ....       0.019 sec  ( 14.4%)
------------------------------------------------------------------------------
                         ORCA GEOMETRY RELAXATION STEP
------------------------------------------------------------------------------

Reading the OPT-File                    .... done
Getting information on internals        .... done
Copying old internal coords+grads       .... done
Making the new internal coordinates     .... (new redundants).... done
Validating the new internal coordinates .... (new redundants).... done
Calculating the B-matrix                .... done
Calculating the G,G- and P matrices     .... done
Transforming gradient to internals      .... done
Projecting the internal gradient        .... done
Number of atoms                         ....   2
Number of internal coordinates          ....   1
Current Energy                          ....  -129.836881379 Eh
Current gradient norm                   ....     0.160234916 Eh/bohr
Maximum allowed component of the step   ....  0.300
Current trust radius                    ....  0.300
Updating the Hessian (BFGS)             .... done
Forming the augmented Hessian           .... done
Diagonalizing the augmented Hessian     .... done
Last element of RFO vector              ....  0.957882047
Lowest eigenvalues of augmented Hessian:
 -0.033966986
Length of the computed step             ....  0.299788424
The final length of the internal step   ....  0.299788424
Converting the step to cartesian space:
 Initial RMS(Int)=    0.2997884239
Transforming coordinates:
 Iter   0:  RMS(Cart)=    0.0865414636 RMS(Int)=    0.2997884239
 Iter   1:  RMS(Cart)=    0.0000000000 RMS(Int)=    0.0000000000
done
Storing new coordinates                 .... done

                                .--------------------.
          ----------------------|Geometry convergence|-------------------------
          Item                value                   Tolerance       Converged
          ---------------------------------------------------------------------
          Energy change      -0.0535474006            0.0000050000      NO
          RMS gradient        0.1133031956            0.0001000000      NO
          MAX gradient        0.1133031956            0.0003000000      NO
          RMS step            0.2997884239            0.0020000000      NO
          MAX step            0.2997884239            0.0040000000      NO
          ........................................................
          Max(Bonds)      0.1586      Max(Angles)    0.00
          Max(Dihed)        0.00      Max(Improp)    0.00
          ---------------------------------------------------------------------

The optimization has not yet converged - more geometry cycles are needed


    ---------------------------------------------------------------------------
                         Redundant Internal Coordinates
                            (Angstroem and degrees)

        Definition                    Value    dE/dq     Step     New-Value
    ----------------------------------------------------------------------------
     1. B(O   1,N   0)                1.2225  0.113303 -0.1586    1.0639   
    ----------------------------------------------------------------------------

         *************************************************************
         *                GEOMETRY OPTIMIZATION CYCLE   4            *
         *************************************************************
---------------------------------
CARTESIAN COORDINATES (ANGSTROEM)
---------------------------------
  N    -27.845256   12.166670    0.000000
  O    -26.781404   12.166670    0.000000

----------------------------
CARTESIAN COORDINATES (A.U.)
----------------------------
  NO LB      ZA    FRAG     MASS         X           Y           Z
   0 N     7.0000    0    14.007  -52.619908   22.991674    0.000000
   1 O     8.0000    0    15.999  -50.609519   22.991674    0.000000

--------------------------------
INTERNAL COORDINATES (ANGSTROEM)
--------------------------------
 N      0   0   0     0.000000000000     0.00000000     0.00000000
 O      1   0   0     1.063852473772     0.00000000     0.00000000

---------------------------
INTERNAL COORDINATES (A.U.)
---------------------------
 N      0   0   0     0.000000000000     0.00000000     0.00000000
 O      1   0   0     2.010389822324     0.00000000     0.00000000



           ************************************************************
           *        Program running with 4 parallel MPI-processes     *
           *              working on a common directory               *
           ************************************************************


           ************************************************************
           *        Program running with 4 parallel MPI-processes     *
           *              working on a common directory               *
           ************************************************************

Diagonalization of the overlap matrix:
Smallest eigenvalue                        ... 1.153e-02
Time for diagonalization                   ...    0.000 sec
Threshold for overlap eigenvalues          ... 1.000e-08
Number of eigenvalues below threshold      ... 0
Time for construction of square roots      ...    0.000 sec
Total time needed                          ...    0.001 sec

-------------------
DFT GRID GENERATION
-------------------

General Integration Accuracy     IntAcc      ...  4.340
Radial Grid Type                 RadialGrid  ... Gauss-Chebyshev
Angular Grid (max. acc.)         AngularGrid ... Lebedev-110
Angular grid pruning method      GridPruning ... 3 (G Style)
Weight generation scheme         WeightScheme... Becke
Basis function cutoff            BFCut       ...    1.0000e-11
Integration weight cutoff        WCut        ...    1.0000e-14
Grids for H and He will be reduced by one unit

# of grid points (after initial pruning)     ...   3418 (   0.0 sec)
# of grid points (after weights+screening)   ...   3392 (   0.0 sec)
nearest neighbour list constructed           ...    0.0 sec
Grid point re-assignment to atoms done       ...    0.0 sec
Grid point division into batches done        ...    0.0 sec
Reduced shell lists constructed in    0.0 sec

Total number of grid points                  ...     3392
Total number of batches                      ...       54
Average number of points per batch           ...       62
Average number of grid points per atom       ...     1696
Average number of shells per batch           ...    10.73 (89.44%)
Average number of basis functions per batch  ...    25.27 (90.24%)
Average number of large shells per batch     ...     8.73 (81.37%)
Average number of large basis fcns per batch ...    20.87 (82.59%)
Maximum spatial batch extension              ...  13.56, 19.31, 25.65 au
Average spatial batch extension              ...   2.24,  2.46,  2.86 au

Time for grid setup =    0.005 sec

--------------
SCF ITERATIONS
--------------
ITER       Energy         Delta-E        Max-DP      RMS-DP      [F,P]     Damp
               ***  Starting incremental Fock matrix formation  ***
  0   -129.8026048197   0.000000000000 0.01135447  0.00118072  0.0821888 0.7000
  1   -129.8090754318  -0.006470612152 0.00978210  0.00104582  0.0559372 0.7000
                               ***Turning on DIIS***
  2   -129.8135606530  -0.004485221176 0.02701712  0.00270797  0.0367733 0.0000
  3   -129.8240083604  -0.010447707361 0.01028867  0.00063573  0.0079663 0.0000
  4   -129.8242038011  -0.000195440710 0.00135662  0.00011388  0.0028057 0.0000
  5   -129.8242255881  -0.000021786977 0.00076968  0.00005244  0.0007517 0.0000
  6   -129.8242275078  -0.000001919787 0.00028506  0.00001713  0.0011406 0.0000
  7   -129.8242285175  -0.000001009658 0.00034879  0.00001750  0.0003350 0.0000
  8   -129.8242288983  -0.000000380769 0.00015549  0.00000878  0.0000596 0.0000
  9   -129.8242289834  -0.000000085166 0.00007994  0.00000418  0.0000133 0.0000
 10   -129.8242289997  -0.000000016253 0.00002632  0.00000140  0.0000022 0.0000
                 **** Energy Check signals convergence ****

               *****************************************************
               *                     SUCCESS                       *
               *           SCF CONVERGED AFTER  11 CYCLES          *
               *****************************************************

Setting up the final grid:

General Integration Accuracy     IntAcc      ...  4.670
Radial Grid Type                 RadialGrid  ... Gauss-Chebyshev
Angular Grid (max. acc.)         AngularGrid ... Lebedev-302
Angular grid pruning method      GridPruning ... 3 (G Style)
Weight generation scheme         WeightScheme... Becke
Basis function cutoff            BFCut       ...    1.0000e-11
Integration weight cutoff        WCut        ...    1.0000e-14
Grids for H and He will be reduced by one unit

# of grid points (after initial pruning)     ...  12424 (   0.0 sec)
# of grid points (after weights+screening)   ...  12394 (   0.0 sec)
nearest neighbour list constructed           ...    0.0 sec
Grid point re-assignment to atoms done       ...    0.0 sec
Grid point division into batches done        ...    0.1 sec
Reduced shell lists constructed in    0.1 sec

Total number of grid points                  ...    12394
Total number of batches                      ...      195
Average number of points per batch           ...       63
Average number of grid points per atom       ...     6197
Average number of shells per batch           ...     7.96 (66.33%)
Average number of basis functions per batch  ...    18.56 (66.29%)
Average number of large shells per batch     ...     6.60 (82.91%)
Average number of large basis fcns per batch ...    15.48 (83.41%)
Maximum spatial batch extension              ...  12.61, 19.94, 19.94 au
Average spatial batch extension              ...   1.38,  1.66,  1.61 au

Final grid set up in    0.1 sec
Final integration                            ... done (   0.0 sec)
Change in XC energy                          ...    -0.000099939
Integrated number of electrons               ...    15.000003584
Previous integrated no of electrons          ...    14.999839351
Total Energy       :         -129.82432894 Eh           -3532.69959 eV
  Last Energy change         ...   -1.8995e-09  Tolerance :   1.0000e-08
  Last MAX-Density change    ...    9.2981e-06  Tolerance :   1.0000e-07
             **** THE GBW FILE WAS UPDATED (nitrogen_monoxide_B3LYP_cc-pVDZ_OPT.gbw) ****
             **** DENSITY FILE WAS UPDATED (nitrogen_monoxide_B3LYP_cc-pVDZ_OPT.scfp) ****
             **** ENERGY FILE WAS UPDATED (nitrogen_monoxide_B3LYP_cc-pVDZ_OPT.en.tmp) ****
----------------------
UHF SPIN CONTAMINATION
----------------------

Warning: in a DFT calculation there is little theoretical justification to 
         calculate <S**2> as in Hartree-Fock theory. We will do it anyways
         but you should keep in mind that the values have only limited relevance

Expectation value of <S**2>     :     0.751965
Ideal value S*(S+1) for S=0.5   :     0.750000
Deviation                       :     0.001965

             **** THE GBW FILE WAS UPDATED (nitrogen_monoxide_B3LYP_cc-pVDZ_OPT.gbw) ****
[...]
   Density functional embedding theory  .... OFF
   NL short-range parameter             ....  4.800000


General Settings:
 Integral files         IntName         .... nitrogen_monoxide_B3LYP_cc-pVDZ_OPT
 Hartree-Fock type      HFTyp           .... UHF
 Total Charge           Charge          ....    0
 Multiplicity           Mult            ....    2
 Number of Electrons    NEL             ....   15
 Basis Dimension        Dim             ....   28
 Nuclear Repulsion      ENuc            ....     25.6752649796 Eh

Convergence Acceleration:
 DIIS                   CNVDIIS         .... on
   Start iteration      DIISMaxIt       ....    12
   Startup error        DIISStart       ....  0.200000
   # of expansion vecs  DIISMaxEq       ....     5
   Bias factor          DIISBfac        ....   1.050
   Max. coefficient     DIISMaxC        ....  10.000
 Newton-Raphson         CNVNR           .... off
 SOSCF                  CNVSOSCF        .... off
 Level Shifting         CNVShift        .... on
   Level shift para.    LevelShift      ....    0.2500
   Turn off err/grad.   ShiftErr        ....    0.0010
 Zerner damping         CNVZerner       .... off
 Static damping         CNVDamp         .... on
   Fraction old density DampFac         ....    0.7000
   Max. Damping (<1)    DampMax         ....    0.9800
   Min. Damping (>=0)   DampMin         ....    0.0000
   Turn off err/grad.   DampErr         ....    0.1000
 Fernandez-Rico         CNVRico         .... off

SCF Procedure:
 Maximum # iterations   MaxIter         ....   125
 SCF integral mode      SCFMode         .... Direct
   Integral package                     .... LIBINT
 Reset frequency        DirectResetFreq ....    20
 Integral Threshold     Thresh          ....  2.500e-11 Eh
 Primitive CutOff       TCut            ....  2.500e-12 Eh

Convergence Tolerance:
 Convergence Check Mode ConvCheckMode   .... Total+1el-Energy
 Convergence forced     ConvForced      .... 0
 Energy Change          TolE            ....  1.000e-08 Eh
 1-El. energy change                    ....  1.000e-05 Eh
 DIIS Error             TolErr          ....  5.000e-07


Diagonalization of the overlap matrix:
Smallest eigenvalue                        ... 1.451e-02
Time for diagonalization                   ...    0.000 sec
Threshold for overlap eigenvalues          ... 1.000e-08
Number of eigenvalues below threshold      ... 0
Time for construction of square roots      ...    0.000 sec
Total time needed                          ...    0.001 sec

---------------------
INITIAL GUESS: MOREAD
---------------------
Guess MOs are being read from file: nitrogen_monoxide_B3LYP_cc-pVDZ_OPT.gbw
Input Geometry matches current geometry (good)
Input basis set matches current basis set (good)
MOs were renormalized
MOs were reorthogonalized (Cholesky)
                      ------------------
                      INITIAL GUESS DONE (   0.0 sec)
                      ------------------
-------------------
DFT GRID GENERATION
-------------------

General Integration Accuracy     IntAcc      ...  4.340
Radial Grid Type                 RadialGrid  ... Gauss-Chebyshev
Angular Grid (max. acc.)         AngularGrid ... Lebedev-110
Angular grid pruning method      GridPruning ... 3 (G Style)
Weight generation scheme         WeightScheme... Becke
Basis function cutoff            BFCut       ...    1.0000e-11
Integration weight cutoff        WCut        ...    1.0000e-14
Grids for H and He will be reduced by one unit

# of grid points (after initial pruning)     ...   3418 (   0.0 sec)
# of grid points (after weights+screening)   ...   3392 (   0.0 sec)
nearest neighbour list constructed           ...    0.0 sec
Grid point re-assignment to atoms done       ...    0.0 sec
Grid point division into batches done        ...    0.0 sec
Reduced shell lists constructed in    0.0 sec

Total number of grid points                  ...     3392
Total number of batches                      ...       54
Average number of points per batch           ...       62
Average number of grid points per atom       ...     1696
Average number of shells per batch           ...    10.73 (89.44%)
Average number of basis functions per batch  ...    25.27 (90.24%)
Average number of large shells per batch     ...     8.60 (80.12%)
Average number of large basis fcns per batch ...    20.73 (82.06%)
Maximum spatial batch extension              ...  13.73, 19.31, 25.65 au
Average spatial batch extension              ...   2.27,  2.47,  2.86 au

Time for grid setup =    0.007 sec

--------------
SCF ITERATIONS
--------------
ITER       Energy         Delta-E        Max-DP      RMS-DP      [F,P]     Damp
               ***  Starting incremental Fock matrix formation  ***
  0   -129.8447237521   0.000000000000 0.00000066  0.00000005  0.0000034 0.7000
                 **** Energy Check signals convergence ****

               *****************************************************
               *                     SUCCESS                       *
               *           SCF CONVERGED AFTER   1 CYCLES          *
               *****************************************************

Setting up the final grid:

General Integration Accuracy     IntAcc      ...  4.670
Radial Grid Type                 RadialGrid  ... Gauss-Chebyshev
Angular Grid (max. acc.)         AngularGrid ... Lebedev-302
Angular grid pruning method      GridPruning ... 3 (G Style)
Weight generation scheme         WeightScheme... Becke
Basis function cutoff            BFCut       ...    1.0000e-11
Integration weight cutoff        WCut        ...    1.0000e-14
Grids for H and He will be reduced by one unit

# of grid points (after initial pruning)     ...  12424 (   0.0 sec)
# of grid points (after weights+screening)   ...  12394 (   0.0 sec)
nearest neighbour list constructed           ...    0.0 sec
Grid point re-assignment to atoms done       ...    0.0 sec
Grid point division into batches done        ...    0.1 sec
Reduced shell lists constructed in    0.1 sec

Total number of grid points                  ...    12394
Total number of batches                      ...      195
Average number of points per batch           ...       63
Average number of grid points per atom       ...     6197
Average number of shells per batch           ...     7.94 (66.17%)
Average number of basis functions per batch  ...    18.54 (66.21%)
Average number of large shells per batch     ...     6.58 (82.87%)
Average number of large basis fcns per batch ...    15.58 (84.03%)
Maximum spatial batch extension              ...  12.78, 19.94, 19.94 au
Average spatial batch extension              ...   1.37,  1.64,  1.60 au

Final grid set up in    0.1 sec
Final integration                            ... done (   0.0 sec)
Change in XC energy                          ...    -0.000107284
Integrated number of electrons               ...    14.999999610
Previous integrated no of electrons          ...    14.999801592

----------------
TOTAL SCF ENERGY
----------------

Total Energy       :         -129.84483104 Eh           -3533.25748 eV

Components:
Nuclear Repulsion  :           25.67526498 Eh             698.65948 eV
Electronic Energy  :         -155.52009602 Eh           -4231.91696 eV
One Electron Energy:         -227.85842467 Eh           -6200.34295 eV
Two Electron Energy:           72.33832866 Eh            1968.42600 eV

Virial components:
Potential Energy   :         -259.09162914 Eh           -7050.24166 eV
Kinetic Energy     :          129.24679811 Eh            3516.98418 eV
Virial Ratio       :            2.00462706


DFT components:
N(Alpha)           :        7.999999749220 electrons
N(Beta)            :        6.999999861134 electrons
N(Total)           :       14.999999610354 electrons
E(X)               :      -11.752562950436 Eh       
E(C)               :       -0.623303166173 Eh       
E(XC)              :      -12.375866116609 Eh       
DFET-embed. en.    :        0.000000000000 Eh       

---------------
SCF CONVERGENCE
---------------

  Last Energy change         ...   -4.4906e-12  Tolerance :   1.0000e-08
  Last MAX-Density change    ...    2.9370e-07  Tolerance :   1.0000e-07
  Last RMS-Density change    ...    2.0680e-08  Tolerance :   5.0000e-09
  Last DIIS Error            ...    2.0751e-06  Tolerance :   5.0000e-07

             **** THE GBW FILE WAS UPDATED (nitrogen_monoxide_B3LYP_cc-pVDZ_OPT.gbw) ****
             **** DENSITY FILE WAS UPDATED (nitrogen_monoxide_B3LYP_cc-pVDZ_OPT.scfp) ****
             **** ENERGY FILE WAS UPDATED (nitrogen_monoxide_B3LYP_cc-pVDZ_OPT.en.tmp) ****
----------------------
UHF SPIN CONTAMINATION
----------------------

Warning: in a DFT calculation there is little theoretical justification to 
         calculate <S**2> as in Hartree-Fock theory. We will do it anyways
         but you should keep in mind that the values have only limited relevance

Expectation value of <S**2>     :     0.752447
Ideal value S*(S+1) for S=0.5   :     0.750000
Deviation                       :     0.002447

             **** THE GBW FILE WAS UPDATED (nitrogen_monoxide_B3LYP_cc-pVDZ_OPT.gbw) ****
             **** DENSITY FILE WAS UPDATED (nitrogen_monoxide_B3LYP_cc-pVDZ_OPT.scfp) ****
----------------
ORBITAL ENERGIES
----------------
                 SPIN UP ORBITALS
  NO   OCC          E(Eh)            E(eV) 
   0   1.0000     -19.270825      -524.3858 
   1   1.0000     -14.457686      -393.4136 
   2   1.0000      -1.238681       -33.7062 
   3   1.0000      -0.678962       -18.4755 
   4   1.0000      -0.525694       -14.3049 
   5   1.0000      -0.499085       -13.5808 
   6   1.0000      -0.472977       -12.8704 
   7   1.0000      -0.205932        -5.6037 
   8   0.0000      -0.095255        -2.5920 
   9   0.0000       0.328774         8.9464 
  10   0.0000       0.661717        18.0062 
  11   0.0000       0.675615        18.3844 
  12   0.0000       0.693048        18.8588 
  13   0.0000       0.789357        21.4795 
  14   0.0000       0.852625        23.2011 
  15   0.0000       0.909401        24.7461 
  16   0.0000       0.918991        25.0070 
  17   0.0000       1.640957        44.6527 
  18   0.0000       1.644299        44.7436 
  19   0.0000       1.673898        45.5491 
  20   0.0000       1.675789        45.6005 
  21   0.0000       1.703590        46.3571 
  22   0.0000       2.469054        67.1864 
  23   0.0000       2.545971        69.2794 
  24   0.0000       2.548073        69.3366 
  25   0.0000       3.111717        84.6741 
  26   0.0000       3.112922        84.7069 
  27   0.0000       3.457019        94.0703 

                 SPIN DOWN ORBITALS
  NO   OCC          E(Eh)            E(eV) 
   0   1.0000     -19.260604      -524.1077 
   1   1.0000     -14.442304      -392.9951 
   2   1.0000      -1.216764       -33.1098 
   3   1.0000      -0.641938       -17.4680 
   4   1.0000      -0.488784       -13.3005 
   5   1.0000      -0.451667       -12.2905 
   6   1.0000      -0.448588       -12.2067 
   7   0.0000      -0.078855        -2.1457 
   8   0.0000      -0.035855        -0.9757 
   9   0.0000       0.344270         9.3681 
  10   0.0000       0.685762        18.6605 
  11   0.0000       0.705407        19.1951 
  12   0.0000       0.716260        19.4904 
  13   0.0000       0.811742        22.0886 
  14   0.0000       0.860133        23.4054 
  15   0.0000       0.924019        25.1438 
  16   0.0000       0.947049        25.7705 
  17   0.0000       1.680939        45.7407 
  18   0.0000       1.689317        45.9686 
  19   0.0000       1.689396        45.9708 
  20   0.0000       1.714729        46.6602 
  21   0.0000       1.717786        46.7433 
  22   0.0000       2.491130        67.7871 
  23   0.0000       2.578524        70.1652 
  24   0.0000       2.579051        70.1795 
  25   0.0000       3.118096        84.8477 
  26   0.0000       3.149481        85.7017 
  27   0.0000       3.472014        94.4783 

                    ********************************
                    * MULLIKEN POPULATION ANALYSIS *
                    ********************************

--------------------------------------------
MULLIKEN ATOMIC CHARGES AND SPIN POPULATIONS
--------------------------------------------
   0 N :    0.031890    0.691057
   1 O :   -0.031890    0.308943
Sum of atomic charges         :   -0.0000000
Sum of atomic spin populations:    1.0000000

-----------------------------------------------------
MULLIKEN REDUCED ORBITAL CHARGES AND SPIN POPULATIONS
-----------------------------------------------------
CHARGE
  0 N s       :     3.846849  s :     3.846849
      pz      :     0.710950  p :     3.052613
      px      :     1.010718
      py      :     1.330945
      dz2     :     0.006172  d :     0.068648
      dxz     :     0.021829
      dyz     :     0.000000
      dx2y2   :     0.018968
      dxy     :     0.021680
  1 O s       :     3.813891  s :     3.813891
      pz      :     1.259206  p :     4.189258
      px      :     1.291614
      py      :     1.638439
      dz2     :     0.002826  d :     0.028741
      dxz     :     0.008015
      dyz     :     0.000000
      dx2y2   :     0.008963
      dxy     :     0.008937

SPIN
  0 N s       :     0.014313  s :     0.014313
      pz      :     0.015752  p :     0.677724
      px      :    -0.009037
      py      :     0.671009
      dz2     :    -0.000406  d :    -0.000980
      dxz     :    -0.000323
      dyz     :    -0.000000
      dx2y2   :     0.000721
      dxy     :    -0.000972
  1 O s       :     0.006594  s :     0.006594
      pz      :    -0.015356  p :     0.301624
      px      :    -0.012147
      py      :     0.329127
      dz2     :    -0.000126  d :     0.000725
      dxz     :    -0.000073
      dyz     :    -0.000000
      dx2y2   :     0.000088
      dxy     :     0.000836


                     *******************************
                     * LOEWDIN POPULATION ANALYSIS *
                     *******************************

-------------------------------------------
LOEWDIN ATOMIC CHARGES AND SPIN POPULATIONS
-------------------------------------------
   0 N :   -0.062597    0.672121
   1 O :    0.062597    0.327879

----------------------------------------------------
LOEWDIN REDUCED ORBITAL CHARGES AND SPIN POPULATIONS
----------------------------------------------------
CHARGE
  0 N s       :     3.625650  s :     3.625650
      pz      :     0.723408  p :     3.293782
      px      :     1.249044
      py      :     1.321331
      dz2     :     0.016047  d :     0.143164
      dxz     :     0.032784
      dyz     :     0.000000
      dx2y2   :     0.048223
      dxy     :     0.046110
  1 O s       :     3.587849  s :     3.587849
      pz      :     1.234701  p :     4.297132
      px      :     1.447802
      py      :     1.614629
      dz2     :     0.006269  d :     0.052423
      dxz     :     0.009108
      dyz     :     0.000000
      dx2y2   :     0.019115
      dxy     :     0.017930

SPIN
  0 N s       :     0.007882  s :     0.007882
      pz      :     0.014548  p :     0.652383
      px      :    -0.006926
      py      :     0.644761
      dz2     :    -0.000424  d :     0.011856
      dxz     :    -0.000635
      dyz     :    -0.000000
      dx2y2   :     0.001487
      dxy     :     0.011428
  1 O s       :     0.004332  s :     0.004332
      pz      :    -0.013980  p :     0.313784
      px      :    -0.006861
      py      :     0.334625
      dz2     :    -0.000036  d :     0.009763
      dxz     :     0.000066
      dyz     :    -0.000000
      dx2y2   :     0.000546
      dxy     :     0.009186


                      *****************************
                      * MAYER POPULATION ANALYSIS *
                      *****************************

  NA   - Mulliken gross atomic population
  ZA   - Total nuclear charge
  QA   - Mulliken gross atomic charge
  VA   - Mayer's total valence
  BVA  - Mayer's bonded valence
  FA   - Mayer's free valence

  ATOM       NA         ZA         QA         VA         BVA        FA
  0 N      6.9681     7.0000     0.0319     2.7240     2.2608     0.4632
  1 O      8.0319     8.0000    -0.0319     2.3799     2.2608     0.1190

  Mayer bond orders larger than 0.100000
B(  0-N ,  1-O ) :   2.2608 

-------
TIMINGS
-------

Total SCF time: 0 days 0 hours 0 min 0 sec 

Total time                  ....       0.452 sec
Sum of individual times     ....       0.288 sec  ( 63.7%)

Fock matrix formation       ....       0.211 sec  ( 46.7%)
  XC integration            ....       0.019 sec  (  8.9% of F)
    Basis function eval.    ....       0.005 sec  ( 28.6% of XC)
    Density eval.           ....       0.003 sec  ( 18.2% of XC)
    XC-Functional eval.     ....       0.004 sec  ( 23.4% of XC)
    XC-Potential eval.      ....       0.004 sec  ( 19.3% of XC)
Diagonalization             ....       0.001 sec  (  0.1%)
Density matrix formation    ....       0.000 sec  (  0.0%)
Population analysis         ....       0.001 sec  (  0.2%)
Initial guess               ....       0.001 sec  (  0.2%)
Orbital Transformation      ....       0.000 sec  (  0.0%)
Orbital Orthonormalization  ....       0.000 sec  (  0.0%)
DIIS solution               ....       0.000 sec  (  0.0%)
Grid generation             ....       0.075 sec  ( 16.5%)

-------------------------   --------------------
FINAL SINGLE POINT ENERGY      -129.844831036107
-------------------------   --------------------

                                *** OPTIMIZATION RUN DONE ***

                            ***************************************
                            *     ORCA property calculations      *
                            ***************************************

                                    ---------------------
                                    Active property flags
                                    ---------------------
   (+) Dipole Moment


------------------------------------------------------------------------------
                       ORCA ELECTRIC PROPERTIES CALCULATION
------------------------------------------------------------------------------

Dipole Moment Calculation                       ... on
Quadrupole Moment Calculation                   ... off
Polarizability Calculation                      ... off
GBWName                                         ... nitrogen_monoxide_B3LYP_cc-pVDZ_OPT.gbw
Electron density file                           ... nitrogen_monoxide_B3LYP_cc-pVDZ_OPT.scfp
The origin for moment calculation is the CENTER OF MASS  = (-51.542316, 22.991674  0.000000)

-------------
DIPOLE MOMENT
-------------
                                X             Y             Z
Electronic contribution:      0.02438       0.00000      -0.00000
Nuclear contribution   :      0.00458       0.00000       0.00000
                        -----------------------------------------
Total Dipole Moment    :      0.02896       0.00000      -0.00000
                        -----------------------------------------
Magnitude (a.u.)       :      0.02896
Magnitude (Debye)      :      0.07362



--------------------
Rotational spectrum 
--------------------
 
Rotational constants in cm-1:     0.000000     1.694410     1.694410 
Rotational constants in MHz :     0.000000 50797.143953 50797.143953 

 Dipole components along the rotational axes: 
x,y,z [a.u.] :     0.028963     0.000000    -0.000000 
x,y,z [Debye]:     0.073618     0.000000    -0.000000 

 

Timings for individual modules:

Sum of individual times         ...       22.780 sec (=   0.380 min)
GTO integral calculation        ...        2.643 sec (=   0.044 min)  11.6 %
SCF iterations                  ...       17.792 sec (=   0.297 min)  78.1 %
SCF Gradient evaluation         ...        2.220 sec (=   0.037 min)   9.7 %
Geometry relaxation             ...        0.125 sec (=   0.002 min)   0.5 %
                             ****ORCA TERMINATED NORMALLY****
TOTAL RUN TIME: 0 days 0 hours 0 minutes 23 seconds 1 msec
