
                                 *****************
                                 * O   R   C   A *
                                 *****************

                                            #,                                       
                                            ###                                      
                                            ####                                     
                                            #####                                    
                                            ######                                   
                                           ########,                                 
                                     ,,################,,,,,                         
                               ,,#################################,,                 
                          ,,##########################################,,             
                       ,#########################################, ''#####,          
                    ,#############################################,,   '####,        
                  ,##################################################,,,,####,       
                ,###########''''           ''''###############################       
              ,#####''   ,,,,##########,,,,          '''####'''          '####       
            ,##' ,,,,###########################,,,                        '##       
           ' ,,###''''                  '''############,,,                           
         ,,##''                                '''############,,,,        ,,,,,,###''
      ,#''                                            '''#######################'''  
     '                                                          ''''####''''         
             ,#######,   #######,   ,#######,      ##                                
            ,#'     '#,  ##    ##  ,#'     '#,    #''#        ######   ,####,        
            ##       ##  ##   ,#'  ##            #'  '#       #        #'  '#        
            ##       ##  #######   ##           ,######,      #####,   #    #        
            '#,     ,#'  ##    ##  '#,     ,#' ,#      #,         ##   #,  ,#        
             '#######'   ##     ##  '#######'  #'      '#     #####' # '####'        



                  #######################################################
                  #                        -***-                        #
                  #          Department of theory and spectroscopy      #
                  #    Directorship and core code : Frank Neese         #
                  #        Max Planck Institute fuer Kohlenforschung    #
                  #                Kaiser Wilhelm Platz 1               #
                  #                 D-45470 Muelheim/Ruhr               #
                  #                      Germany                        #
                  #                                                     #
                  #                  All rights reserved                #
                  #                        -***-                        #
                  #######################################################


                         Program Version 5.0.1 -  RELEASE  -


 With contributions from (in alphabetic order):
   Daniel Aravena         : Magnetic Suceptibility
   Michael Atanasov       : Ab Initio Ligand Field Theory (pilot matlab implementation)
   Alexander A. Auer      : GIAO ZORA, VPT2 properties, NMR spectrum
   Ute Becker             : Parallelization
   Giovanni Bistoni       : ED, misc. LED, open-shell LED, HFLD
   Martin Brehm           : Molecular dynamics
   Dmytro Bykov           : SCF Hessian
   Vijay G. Chilkuri      : MRCI spin determinant printing, contributions to CSF-ICE
   Dipayan Datta          : RHF DLPNO-CCSD density
   Achintya Kumar Dutta   : EOM-CC, STEOM-CC
   Dmitry Ganyushin       : Spin-Orbit,Spin-Spin,Magnetic field MRCI
   Miquel Garcia          : C-PCM and meta-GGA Hessian, CC/C-PCM, Gaussian charge scheme
   Yang Guo               : DLPNO-NEVPT2, F12-NEVPT2, CIM, IAO-localization
   Andreas Hansen         : Spin unrestricted coupled pair/coupled cluster methods
   Benjamin Helmich-Paris : MC-RPA, TRAH-SCF, COSX integrals
   Lee Huntington         : MR-EOM, pCC
   Robert Izsak           : Overlap fitted RIJCOSX, COSX-SCS-MP3, EOM
   Marcus Kettner         : VPT2
   Christian Kollmar      : KDIIS, OOCD, Brueckner-CCSD(T), CCSD density, CASPT2, CASPT2-K
   Simone Kossmann        : Meta GGA functionals, TD-DFT gradient, OOMP2, MP2 Hessian
   Martin Krupicka        : Initial AUTO-CI
   Lucas Lang             : DCDCAS
   Marvin Lechner         : AUTO-CI (C++ implementation), FIC-MRCC
   Dagmar Lenk            : GEPOL surface, SMD
   Dimitrios Liakos       : Extrapolation schemes; Compound Job, initial MDCI parallelization
   Dimitrios Manganas     : Further ROCIS development; embedding schemes
   Dimitrios Pantazis     : SARC Basis sets
   Anastasios Papadopoulos: AUTO-CI, single reference methods and gradients
   Taras Petrenko         : DFT Hessian,TD-DFT gradient, ASA, ECA, R-Raman, ABS, FL, XAS/XES, NRVS
   Peter Pinski           : DLPNO-MP2, DLPNO-MP2 Gradient
   Christoph Reimann      : Effective Core Potentials
   Marius Retegan         : Local ZFS, SOC
   Christoph Riplinger    : Optimizer, TS searches, QM/MM, DLPNO-CCSD(T), (RO)-DLPNO pert. Triples
   Tobias Risthaus        : Range-separated hybrids, TD-DFT gradient, RPA, STAB
   Michael Roemelt        : Original ROCIS implementation
   Masaaki Saitow         : Open-shell DLPNO-CCSD energy and density
   Barbara Sandhoefer     : DKH picture change effects
   Avijit Sen             : IP-ROCIS
   Kantharuban Sivalingam : CASSCF convergence, NEVPT2, FIC-MRCI
   Bernardo de Souza      : ESD, SOC TD-DFT
   Georgi Stoychev        : AutoAux, RI-MP2 NMR, DLPNO-MP2 response
   Willem Van den Heuvel  : Paramagnetic NMR
   Boris Wezisla          : Elementary symmetry handling
   Frank Wennmohs         : Technical directorship


 We gratefully acknowledge several colleagues who have allowed us to
 interface, adapt or use parts of their codes:
   Stefan Grimme, W. Hujo, H. Kruse, P. Pracht,  : VdW corrections, initial TS optimization,
                  C. Bannwarth, S. Ehlert          DFT functionals, gCP, sTDA/sTD-DF
   Ed Valeev, F. Pavosevic, A. Kumar             : LibInt (2-el integral package), F12 methods
   Garnet Chan, S. Sharma, J. Yang, R. Olivares  : DMRG
   Ulf Ekstrom                                   : XCFun DFT Library
   Mihaly Kallay                                 : mrcc  (arbitrary order and MRCC methods)
   Jiri Pittner, Ondrej Demel                    : Mk-CCSD
   Frank Weinhold                                : gennbo (NPA and NBO analysis)
   Christopher J. Cramer and Donald G. Truhlar   : smd solvation model
   Lars Goerigk                                  : TD-DFT with DH, B97 family of functionals
   V. Asgeirsson, H. Jonsson                     : NEB implementation
   FAccTs GmbH                                   : IRC, NEB, NEB-TS, DLPNO-Multilevel, CI-OPT
                                                   MM, QMMM, 2- and 3-layer-ONIOM, Crystal-QMMM,
                                                   LR-CPCM, SF, NACMEs, symmetry and pop. for TD-DFT,
                                                   nearIR, NL-DFT gradient (VV10), updates on ESD,
                                                   ML-optimized integration grids
   S Lehtola, MJT Oliveira, MAL Marques          : LibXC Library
   Liviu Ungur et al                             : ANISO software


 Your calculation uses the libint2 library for the computation of 2-el integrals
 For citations please refer to: http://libint.valeyev.net

 Your ORCA version has been built with support for libXC version: 5.1.0
 For citations please refer to: https://tddft.org/programs/libxc/

 This ORCA versions uses:
   CBLAS   interface :  Fast vector & matrix operations
   LAPACKE interface :  Fast linear algebra routines
   SCALAPACK package :  Parallel linear algebra routines
   Shared memory     :  Shared parallel matrices
   BLAS/LAPACK       :  OpenBLAS 0.3.15  USE64BITINT DYNAMIC_ARCH NO_AFFINITY Zen SINGLE_THREADED
        Core in use  :  Zen
   Copyright (c) 2011-2014, The OpenBLAS Project




***************************************
The coordinates will be read from file: water.xyz
***************************************


================================================================================

----- Orbital basis set information -----
Your calculation utilizes the basis: def2-TZVP
   F. Weigend and R. Ahlrichs, Phys. Chem. Chem. Phys. 7, 3297 (2005).

----- AuxJ basis set information -----
Your calculation utilizes the auxiliary basis: def2/J
   F. Weigend, Phys. Chem. Chem. Phys. 8, 1057 (2006).

================================================================================
                                        WARNINGS
                       Please study these warnings very carefully!
================================================================================


WARNING: Geometry Optimization
  ===> : Switching off AutoStart
         For restart on a previous wavefunction, please use MOREAD

INFO   : the flag for use of the SHARK integral package has been found!

================================================================================
                                       INPUT FILE
================================================================================
NAME = water_OPT.inp
|  1> 
|  2> %pal
|  3>   nprocs 6
|  4> end
|  5> %maxcore 2000
|  6> 
|  7> ! PBE0 def2-TZVP TightOPT Freq
|  8> ! RIJCOSX def2/J
|  9> 
| 10> * xyzfile 0 1 water.xyz
| 11> 
| 12> 
| 13>                          ****END OF INPUT****
================================================================================

                       *****************************
                       * Geometry Optimization Run *
                       *****************************

Geometry optimization settings:
Update method            Update   .... BFGS
Choice of coordinates    CoordSys .... Z-matrix Internals
Initial Hessian          InHess   .... Almoef's Model

Convergence Tolerances:
Energy Change            TolE     ....  1.0000e-06 Eh
Max. Gradient            TolMAXG  ....  1.0000e-04 Eh/bohr
RMS Gradient             TolRMSG  ....  3.0000e-05 Eh/bohr
Max. Displacement        TolMAXD  ....  1.0000e-03 bohr
RMS Displacement         TolRMSD  ....  6.0000e-04 bohr
Strict Convergence                ....  False
------------------------------------------------------------------------------
                        ORCA OPTIMIZATION COORDINATE SETUP
------------------------------------------------------------------------------

The optimization will be done in new redundant internal coordinates
Making redundant internal coordinates   ...  (new redundants) done
Evaluating the initial hessian          ...  (Almloef) done
Evaluating the coordinates              ...  done
Calculating the B-matrix                .... done
Calculating the G-matrix                .... done
Diagonalizing the G-matrix              .... done
The first mode is                       ....    0
The number of degrees of freedom        ....    3

    -----------------------------------------------------------------
                    Redundant Internal Coordinates


    -----------------------------------------------------------------
         Definition                    Initial Value    Approx d2E/dq
    -----------------------------------------------------------------
      1. B(H   1,O   0)                  0.9800         0.483175   
      2. B(H   2,O   0)                  0.9800         0.483173   
      3. A(H   1,O   0,H   2)          104.5006         0.314228   
    -----------------------------------------------------------------

Number of atoms                         .... 3
Number of degrees of freedom            .... 3

         *************************************************************
         *                GEOMETRY OPTIMIZATION CYCLE   1            *
         *************************************************************
---------------------------------
CARTESIAN COORDINATES (ANGSTROEM)
---------------------------------
  O     -0.013140   -0.018590    0.000000
  H     -0.299430    0.918630    0.000000
  H      0.965910    0.023910    0.000000

----------------------------
CARTESIAN COORDINATES (A.U.)
----------------------------
  NO LB      ZA    FRAG     MASS         X           Y           Z
   0 O     8.0000    0    15.999   -0.024831   -0.035130    0.000000
   1 H     1.0000    0     1.008   -0.565841    1.735959    0.000000
   2 H     1.0000    0     1.008    1.825305    0.045183    0.000000

--------------------------------
INTERNAL COORDINATES (ANGSTROEM)
--------------------------------
 O      0   0   0     0.000000000000     0.00000000     0.00000000
 H      1   0   0     0.979971067175     0.00000000     0.00000000
 H      1   2   0     0.979972016182   104.50057830     0.00000000

---------------------------
INTERNAL COORDINATES (A.U.)
---------------------------
 O      0   0   0     0.000000000000     0.00000000     0.00000000
 H      1   0   0     1.851876936127     0.00000000     0.00000000
 H      1   2   0     1.851878729491   104.50057830     0.00000000

---------------------
BASIS SET INFORMATION
---------------------
There are 2 groups of distinct atoms

 Group   1 Type O   : 11s6p2d1f contracted to 5s3p2d1f pattern {62111/411/11/1}
 Group   2 Type H   : 5s1p contracted to 3s1p pattern {311/1}

Atom   0O    basis set group =>   1
Atom   1H    basis set group =>   2
Atom   2H    basis set group =>   2
---------------------------------
AUXILIARY/J BASIS SET INFORMATION
---------------------------------
There are 2 groups of distinct atoms

 Group   1 Type O   : 12s5p4d2f1g contracted to 6s4p3d1f1g pattern {711111/2111/211/2/1}
 Group   2 Type H   : 5s2p1d contracted to 3s1p1d pattern {311/2/1}

Atom   0O    basis set group =>   1
Atom   1H    basis set group =>   2
Atom   2H    basis set group =>   2


           ************************************************************
           *        Program running with 6 parallel MPI-processes     *
           *              working on a common directory               *
           ************************************************************
------------------------------------------------------------------------------
                           ORCA GTO INTEGRAL CALCULATION
                           -- RI-GTO INTEGRALS CHOSEN --
------------------------------------------------------------------------------
------------------------------------------------------------------------------
                   ___                                                        
                  /   \      - P O W E R E D   B Y -                         
                 /     \                                                     
                 |  |  |   _    _      __       _____    __    __             
                 |  |  |  | |  | |    /  \     |  _  \  |  |  /  |          
                  \  \/   | |  | |   /    \    | | | |  |  | /  /          
                 / \  \   | |__| |  /  /\  \   | |_| |  |  |/  /          
                |  |  |   |  __  | /  /__\  \  |    /   |      \           
                |  |  |   | |  | | |   __   |  |    \   |  |\   \          
                \     /   | |  | | |  |  |  |  | |\  \  |  | \   \       
                 \___/    |_|  |_| |__|  |__|  |_| \__\ |__|  \__/        
                                                                              
                      - O R C A' S   B I G   F R I E N D -                    
                                      &                                       
                       - I N T E G R A L  F E E D E R -                       
                                                                              
 v1 FN, 2020, v2 2021                                                         
------------------------------------------------------------------------------


Reading SHARK input file water_OPT.SHARKINP.tmp ... ok
----------------------
SHARK INTEGRAL PACKAGE
----------------------

Number of atoms                             ...      3
Number of basis functions                   ...     43
Number of shells                            ...     19
Maximum angular momentum                    ...      3
Integral batch strategy                     ... SHARK/LIBINT Hybrid
RI-J (if used) integral strategy            ... SPLIT-RIJ (Revised 2003 algorithm where possible)
Printlevel                                  ...      1
Contraction scheme used                     ... SEGMENTED contraction
Coulomb Range Separation                    ... NOT USED
Exchange Range Separation                   ... NOT USED
Finite Nucleus Model                        ... NOT USED
Auxiliary Coulomb fitting basis             ... AVAILABLE
   # of basis functions in Aux-J            ...     71
   # of shells in Aux-J                     ...     25
   Maximum angular momentum in Aux-J        ...      4
Auxiliary J/K fitting basis                 ... NOT available
Auxiliary Correlation fitting basis         ... NOT available
Auxiliary 'external' fitting basis          ... NOT available
Integral threshold                          ...     2.500000e-11
Primitive cut-off                           ...     2.500000e-12
Primitive pair pre-selection threshold      ...     2.500000e-12

Calculating pre-screening integrals         ... done (  0.0 sec) Dimension = 19
Organizing shell pair data                  ... done (  0.0 sec)
Shell pair information
Total number of shell pairs                 ...       190
Shell pairs after pre-screening             ...       190
Total number of primitive shell pairs       ...       556
Primitive shell pairs kept                  ...       535
          la=0 lb=0:     66 shell pairs
          la=1 lb=0:     55 shell pairs
          la=1 lb=1:     15 shell pairs
          la=2 lb=0:     22 shell pairs
          la=2 lb=1:     10 shell pairs
          la=2 lb=2:      3 shell pairs
          la=3 lb=0:     11 shell pairs
          la=3 lb=1:      5 shell pairs
          la=3 lb=2:      2 shell pairs
          la=3 lb=3:      1 shell pairs

Calculating one electron integrals          ... done (  0.0 sec)
Calculating RI/J V-Matrix + Cholesky decomp.... done (  0.0 sec)
Calculating Nuclear repulsion               ... done (  0.0 sec) ENN=      8.981346746581 Eh

SHARK setup successfully completed in   0.1 seconds

Maximum memory used throughout the entire GTOINT-calculation: 13.6 MB


           ************************************************************
           *        Program running with 6 parallel MPI-processes     *
           *              working on a common directory               *
           ************************************************************
-------------------------------------------------------------------------------
                                 ORCA SCF
-------------------------------------------------------------------------------

------------
SCF SETTINGS
------------
Hamiltonian:
 Density Functional     Method          .... DFT(GTOs)
 Exchange Functional    Exchange        .... PBE
   PBE kappa parameter   XKappa         ....  0.804000
   PBE mue parameter    XMuePBE         ....  0.219520
 Correlation Functional Correlation     .... PBE
   PBE beta parameter  CBetaPBE         ....  0.066725
 LDA part of GGA corr.  LDAOpt          .... PW91-LDA
 Gradients option       PostSCFGGA      .... off
 Hybrid DFT is turned on
   Fraction HF Exchange ScalHFX         ....  0.250000
   Scaling of DF-GGA-X  ScalDFX         ....  0.750000
   Scaling of DF-GGA-C  ScalDFC         ....  1.000000
   Scaling of DF-LDA-C  ScalLDAC        ....  1.000000
   Perturbative correction              ....  0.000000
   Density functional embedding theory  .... OFF
   NL short-range parameter             ....  6.900000
 RI-approximation to the Coulomb term is turned on
   Number of AuxJ basis functions       .... 71
   RIJ-COSX (HFX calculated with COS-X)).... on


General Settings:
 Integral files         IntName         .... water_OPT
 Hartree-Fock type      HFTyp           .... RHF
 Total Charge           Charge          ....    0
 Multiplicity           Mult            ....    1
 Number of Electrons    NEL             ....   10
 Basis Dimension        Dim             ....   43
 Nuclear Repulsion      ENuc            ....      8.9813467466 Eh

Convergence Acceleration:
 DIIS                   CNVDIIS         .... on
   Start iteration      DIISMaxIt       ....    12
   Startup error        DIISStart       ....  0.200000
   # of expansion vecs  DIISMaxEq       ....     5
   Bias factor          DIISBfac        ....   1.050
   Max. coefficient     DIISMaxC        ....  10.000
 Trust-Rad. Augm. Hess. CNVTRAH         .... auto
   Auto Start mean grad. ratio tolernc. ....  1.125000
   Auto Start start iteration           ....    20
   Auto Start num. interpolation iter.  ....    10
   Max. Number of Micro iterations      ....    16
   Max. Number of Macro iterations      .... Maxiter - #DIIS iter
   Number of Davidson start vectors     ....     2
   Converg. threshold I  (grad. norm)   ....   1.000e-05
   Converg. threshold II (energy diff.) ....   1.000e-08
   Grad. Scal. Fac. for Micro threshold ....   0.100
   Minimum threshold for Micro iter.    ....   0.010
   NR start threshold (gradient norm)   ....   0.001
   Initial trust radius                 ....   0.400
   Minimum AH scaling param. (alpha)    ....   1.000
   Maximum AH scaling param. (alpha)    .... 1000.000
   Orbital update algorithm             .... Taylor
   White noise on init. David. guess    .... on
   Maximum white noise                  ....   0.010
   Quad. conv. algorithm                .... NR
 SOSCF                  CNVSOSCF        .... on
   Start iteration      SOSCFMaxIt      ....   150
   Startup grad/error   SOSCFStart      ....  0.003300
 Level Shifting         CNVShift        .... on
   Level shift para.    LevelShift      ....    0.2500
   Turn off err/grad.   ShiftErr        ....    0.0010
 Zerner damping         CNVZerner       .... off
 Static damping         CNVDamp         .... on
   Fraction old density DampFac         ....    0.7000
   Max. Damping (<1)    DampMax         ....    0.9800
   Min. Damping (>=0)   DampMin         ....    0.0000
   Turn off err/grad.   DampErr         ....    0.1000
 Fernandez-Rico         CNVRico         .... off

SCF Procedure:
 Maximum # iterations   MaxIter         ....   125
 SCF integral mode      SCFMode         .... Direct
   Integral package                     .... SHARK and LIBINT hybrid scheme
 Reset frequency        DirectResetFreq ....    20
 Integral Threshold     Thresh          ....  2.500e-11 Eh
 Primitive CutOff       TCut            ....  2.500e-12 Eh

Convergence Tolerance:
 Convergence Check Mode ConvCheckMode   .... Total+1el-Energy
 Convergence forced     ConvForced      .... 0
 Energy Change          TolE            ....  1.000e-08 Eh
 1-El. energy change                    ....  1.000e-05 Eh
 Orbital Gradient       TolG            ....  1.000e-05
 Orbital Rotation angle TolX            ....  1.000e-05
 DIIS Error             TolErr          ....  5.000e-07


Diagonalization of the overlap matrix:
Smallest eigenvalue                        ... 9.155e-03
Time for diagonalization                   ...    0.000 sec
Threshold for overlap eigenvalues          ... 1.000e-08
Number of eigenvalues below threshold      ... 0
Time for construction of square roots      ...    0.000 sec
Total time needed                          ...    0.001 sec

Time for model grid setup =    0.005 sec

------------------------------
INITIAL GUESS: MODEL POTENTIAL
------------------------------
Loading Hartree-Fock densities                     ... done
Calculating cut-offs                               ... done
Initializing the effective Hamiltonian             ... done
Setting up the integral package (SHARK)            ... done
Starting the Coulomb interaction                   ... done (   0.0 sec)
Reading the grid                                   ... done
Mapping shells                                     ... done
Starting the XC term evaluation                    ... done (   0.0 sec)
  promolecular density results
     # of electrons  =      9.998749117
     EX              =     -8.721359973
     EC              =     -0.315321322
     EX+EC           =     -9.036681295
Transforming the Hamiltonian                       ... done (   0.0 sec)
Diagonalizing the Hamiltonian                      ... done (   0.0 sec)
Back transforming the eigenvectors                 ... done (   0.0 sec)
Now organizing SCF variables                       ... done
                      ------------------
                      INITIAL GUESS DONE (   0.0 sec)
                      ------------------
-------------------
DFT GRID GENERATION
-------------------

General Integration Accuracy     IntAcc      ... 4.388
Radial Grid Type                 RadialGrid  ... OptM3 with GC (2021)
Angular Grid (max. ang.)         AngularGrid ... 4 (Lebedev-302)
Angular grid pruning method      GridPruning ... 4 (adaptive)
Weight generation scheme         WeightScheme... Becke
Basis function cutoff            BFCut       ... 1.0000e-11
Integration weight cutoff        WCut        ... 1.0000e-14
Angular grids for H and He will be reduced by one unit
Partially contracted basis set               ... off
Rotationally invariant grid construction     ... off

Total number of grid points                  ...    12750
Total number of batches                      ...      201
Average number of points per batch           ...       63
Average number of grid points per atom       ...     4250
Time for grid setup =    0.035 sec

--------------------
COSX GRID GENERATION
--------------------

GRIDX 1
-------
General Integration Accuracy     IntAcc      ... 3.816
Radial Grid Type                 RadialGrid  ... OptM3 with GC (2021)
Angular Grid (max. ang.)         AngularGrid ... 1 (Lebedev-50)
Angular grid pruning method      GridPruning ... 4 (adaptive)
Weight generation scheme         WeightScheme... Becke
Basis function cutoff            BFCut       ... 1.0000e-11
Integration weight cutoff        WCut        ... 1.0000e-14
Angular grids for H and He will be reduced by one unit
Partially contracted basis set               ... on
Rotationally invariant grid construction     ... off

Total number of grid points                  ...     1655
Total number of batches                      ...       27
Average number of points per batch           ...       61
Average number of grid points per atom       ...      552
UseSFitting                                  ... on

GRIDX 2
-------
General Integration Accuracy     IntAcc      ... 4.020
Radial Grid Type                 RadialGrid  ... OptM3 with GC (2021)
Angular Grid (max. ang.)         AngularGrid ... 2 (Lebedev-110)
Angular grid pruning method      GridPruning ... 4 (adaptive)
Weight generation scheme         WeightScheme... Becke
Basis function cutoff            BFCut       ... 1.0000e-11
Integration weight cutoff        WCut        ... 1.0000e-14
Angular grids for H and He will be reduced by one unit
Partially contracted basis set               ... on
Rotationally invariant grid construction     ... off

Total number of grid points                  ...     3503
Total number of batches                      ...       56
Average number of points per batch           ...       62
Average number of grid points per atom       ...     1168
UseSFitting                                  ... on

GRIDX 3
-------
General Integration Accuracy     IntAcc      ... 4.338
Radial Grid Type                 RadialGrid  ... OptM3 with GC (2021)
Angular Grid (max. ang.)         AngularGrid ... 3 (Lebedev-194)
Angular grid pruning method      GridPruning ... 4 (adaptive)
Weight generation scheme         WeightScheme... Becke
Basis function cutoff            BFCut       ... 1.0000e-11
Integration weight cutoff        WCut        ... 1.0000e-14
Angular grids for H and He will be reduced by one unit
Partially contracted basis set               ... on
Rotationally invariant grid construction     ... off

Total number of grid points                  ...     7777
Total number of batches                      ...      123
Average number of points per batch           ...       63
Average number of grid points per atom       ...     2592
UseSFitting                                  ... on

Time for X-Grid setup             =    0.021 sec

--------------
SCF ITERATIONS
--------------
ITER       Energy         Delta-E        Max-DP      RMS-DP      [F,P]     Damp
               ***  Starting incremental Fock matrix formation  ***
  0    -76.2846370223   0.000000000000 0.05445657  0.00362103  0.3214340 0.7000
  1    -76.3303897167  -0.045752694395 0.03251425  0.00217865  0.1331367 0.7000
                               ***Turning on DIIS***
  2    -76.3452889190  -0.014899202296 0.02921911  0.00254378  0.0301120 0.0000
  3    -76.3713835629  -0.026094643990 0.02332959  0.00139724  0.0803932 0.0000
  4    -76.3765778841  -0.005194321161 0.00471449  0.00031516  0.0111693 0.0000
                      *** Initiating the SOSCF procedure ***
                           *** Shutting down DIIS ***
                      *** Re-Reading the Fockian *** 
                      *** Removing any level shift *** 
ITER      Energy       Delta-E        Grad      Rot      Max-DP    RMS-DP
  5    -76.37670909  -0.0001312070  0.000530  0.000530  0.000916  0.000073
               *** Restarting incremental Fock matrix formation ***
  6    -76.37670034   0.0000087521  0.000216  0.000502  0.000527  0.000037
  7    -76.37670061  -0.0000002732  0.000088  0.000112  0.000121  0.000011
  8    -76.37670063  -0.0000000145  0.000084  0.000070  0.000083  0.000007
  9    -76.37670066  -0.0000000311  0.000003  0.000002  0.000002  0.000000
                 **** Energy Check signals convergence ****
              ***Rediagonalizing the Fockian in SOSCF/NRSCF***

               *****************************************************
               *                     SUCCESS                       *
               *           SCF CONVERGED AFTER  10 CYCLES          *
               *****************************************************

Old exchange energy                            =     -2.228722137 Eh
New exchange energy                            =     -2.228744089 Eh
Exchange energy change after final integration =     -0.000021952 Eh
Total energy after final integration           =    -76.376722610 Eh
Final COS-X integration done in                =     0.039 sec

----------------
TOTAL SCF ENERGY
----------------

Total Energy       :          -76.37672261 Eh           -2078.31628 eV

Components:
Nuclear Repulsion  :            8.98134675 Eh             244.39487 eV
Electronic Energy  :          -85.35806936 Eh           -2322.71115 eV
One Electron Energy:         -122.71862968 Eh           -3339.34368 eV
Two Electron Energy:           37.36056032 Eh            1016.63253 eV
Max COSX asymmetry :            0.00000039 Eh               0.00001 eV

Virial components:
Potential Energy   :         -152.42085718 Eh           -4147.58238 eV
Kinetic Energy     :           76.04413457 Eh            2069.26610 eV
Virial Ratio       :            2.00437362


DFT components:
N(Alpha)           :        5.000000452339 electrons
N(Beta)            :        5.000000452339 electrons
N(Total)           :       10.000000904678 electrons
E(X)               :       -6.683898214383 Eh       
E(C)               :       -0.326205722265 Eh       
E(XC)              :       -7.010103936647 Eh       
DFET-embed. en.    :        0.000000000000 Eh       

---------------
SCF CONVERGENCE
---------------

  Last Energy change         ...    5.4541e-11  Tolerance :   1.0000e-08
  Last MAX-Density change    ...    6.6613e-16  Tolerance :   1.0000e-07
  Last RMS-Density change    ...    2.2796e-17  Tolerance :   5.0000e-09
  Last Orbital Gradient      ...    1.1268e-06  Tolerance :   1.0000e-05
  Last Orbital Rotation      ...    5.5119e-07  Tolerance :   1.0000e-05

             **** THE GBW FILE WAS UPDATED (water_OPT.gbw) ****
             **** DENSITY water_OPT.scfp WAS UPDATED ****
             **** ENERGY FILE WAS UPDATED (water_OPT.en.tmp) ****
             **** THE GBW FILE WAS UPDATED (water_OPT.gbw) ****
             **** DENSITY water_OPT.scfp WAS UPDATED ****
----------------
ORBITAL ENERGIES
----------------

  NO   OCC          E(Eh)            E(eV) 
   0   2.0000     -19.205119      -522.5979 
   1   2.0000      -1.030382       -28.0381 
   2   2.0000      -0.537899       -14.6370 
   3   2.0000      -0.401538       -10.9264 
   4   2.0000      -0.325174        -8.8484 
   5   0.0000       0.027661         0.7527 
   6   0.0000       0.101910         2.7731 
   7   0.0000       0.366947         9.9851 
   8   0.0000       0.418686        11.3930 
   9   0.0000       0.445408        12.1202 
  10   0.0000       0.450063        12.2468 
  11   0.0000       0.583889        15.8884 
  12   0.0000       0.610804        16.6208 
  13   0.0000       1.169092        31.8126 
  14   0.0000       1.193341        32.4724 
  15   0.0000       1.300809        35.3968 
  16   0.0000       1.552151        42.2362 
  17   0.0000       1.651185        44.9310 
  18   0.0000       1.748144        47.5694 
  19   0.0000       2.018136        54.9163 
  20   0.0000       2.058337        56.0102 
  21   0.0000       2.099569        57.1322 
  22   0.0000       2.307622        62.7936 
  23   0.0000       2.382507        64.8313 
  24   0.0000       2.567848        69.8747 
  25   0.0000       2.591523        70.5189 
  26   0.0000       2.635030        71.7028 
  27   0.0000       2.785853        75.8069 
  28   0.0000       3.640224        99.0555 
  29   0.0000       3.914457       106.5178 
  30   0.0000       5.116685       139.2321 
  31   0.0000       5.213291       141.8609 
  32   0.0000       5.379924       146.3952 
  33   0.0000       5.404825       147.0728 
  34   0.0000       5.457432       148.5043 
  35   0.0000       5.983389       162.8163 
  36   0.0000       6.192833       168.5156 
  37   0.0000       6.329958       172.2469 
  38   0.0000       6.389350       173.8631 
  39   0.0000       6.442071       175.2977 
  40   0.0000       6.874938       187.0766 
  41   0.0000       7.010685       190.7704 
  42   0.0000      43.354785      1179.7437 

                    ********************************
                    * MULLIKEN POPULATION ANALYSIS *
                    ********************************

-----------------------
MULLIKEN ATOMIC CHARGES
-----------------------
   0 O :   -0.651310
   1 H :    0.325665
   2 H :    0.325645
Sum of atomic charges:   -0.0000000

--------------------------------
MULLIKEN REDUCED ORBITAL CHARGES
--------------------------------
  0 O s       :     3.820022  s :     3.820022
      pz      :     1.964659  p :     4.807734
      px      :     1.369596
      py      :     1.473479
      dz2     :     0.004673  d :     0.022267
      dxz     :     0.000853
      dyz     :     0.001706
      dx2y2   :     0.012941
      dxy     :     0.002096
      f0      :     0.000137  f :     0.001287
      f+1     :     0.000405
      f-1     :     0.000342
      f+2     :     0.000001
      f-2     :     0.000010
      f+3     :     0.000368
      f-3     :     0.000023
  1 H s       :     0.628372  s :     0.628372
      pz      :     0.016317  p :     0.045963
      px      :     0.011516
      py      :     0.018130
  2 H s       :     0.628390  s :     0.628390
      pz      :     0.016317  p :     0.045965
      px      :     0.018586
      py      :     0.011062


                     *******************************
                     * LOEWDIN POPULATION ANALYSIS *
                     *******************************

----------------------
LOEWDIN ATOMIC CHARGES
----------------------
   0 O :   -0.330956
   1 H :    0.165480
   2 H :    0.165476

-------------------------------
LOEWDIN REDUCED ORBITAL CHARGES
-------------------------------
  0 O s       :     3.484788  s :     3.484788
      pz      :     1.910034  p :     4.811860
      px      :     1.398292
      py      :     1.503534
      dz2     :     0.006516  d :     0.032056
      dxz     :     0.000325
      dyz     :     0.000651
      dx2y2   :     0.021715
      dxy     :     0.002849
      f0      :     0.000002  f :     0.002251
      f+1     :     0.000584
      f-1     :     0.000451
      f+2     :     0.000000
      f-2     :     0.000000
      f+3     :     0.000921
      f-3     :     0.000293
  1 H s       :     0.680430  s :     0.680430
      pz      :     0.044494  p :     0.154090
      px      :     0.029474
      py      :     0.080121
  2 H s       :     0.680433  s :     0.680433
      pz      :     0.044494  p :     0.154091
      px      :     0.080576
      py      :     0.029021


                      *****************************
                      * MAYER POPULATION ANALYSIS *
                      *****************************

  NA   - Mulliken gross atomic population
  ZA   - Total nuclear charge
  QA   - Mulliken gross atomic charge
  VA   - Mayer's total valence
  BVA  - Mayer's bonded valence
  FA   - Mayer's free valence

  ATOM       NA         ZA         QA         VA         BVA        FA
  0 O      8.6513     8.0000    -0.6513     1.8078     1.8078    -0.0000
  1 H      0.6743     1.0000     0.3257     0.9093     0.9093     0.0000
  2 H      0.6744     1.0000     0.3256     0.9093     0.9093     0.0000

  Mayer bond orders larger than 0.100000
B(  0-O ,  1-H ) :   0.9039 B(  0-O ,  2-H ) :   0.9039 

-------
TIMINGS
-------

Total SCF time: 0 days 0 hours 0 min 0 sec 

Total time                  ....       0.651 sec
Sum of individual times     ....       0.602 sec  ( 92.4%)

Fock matrix formation       ....       0.516 sec  ( 79.2%)
  Split-RI-J                ....       0.100 sec  ( 19.5% of F)
  Chain of spheres X        ....       0.343 sec  ( 66.6% of F)
  XC integration            ....       0.064 sec  ( 12.5% of F)
    Basis function eval.    ....       0.019 sec  ( 29.3% of XC)
    Density eval.           ....       0.011 sec  ( 16.6% of XC)
    XC-Functional eval.     ....       0.010 sec  ( 15.9% of XC)
    XC-Potential eval.      ....       0.011 sec  ( 16.4% of XC)
Diagonalization             ....       0.005 sec  (  0.8%)
Density matrix formation    ....       0.001 sec  (  0.1%)
Population analysis         ....       0.004 sec  (  0.6%)
Initial guess               ....       0.004 sec  (  0.7%)
Orbital Transformation      ....       0.000 sec  (  0.0%)
Orbital Orthonormalization  ....       0.000 sec  (  0.0%)
DIIS solution               ....       0.006 sec  (  1.0%)
SOSCF solution              ....       0.004 sec  (  0.6%)
Grid generation             ....       0.062 sec  (  9.5%)

Maximum memory used throughout the entire SCF-calculation: 57.6 MB

-------------------------   --------------------
FINAL SINGLE POINT ENERGY       -76.376722609546
-------------------------   --------------------



           ************************************************************
           *        Program running with 6 parallel MPI-processes     *
           *              working on a common directory               *
           ************************************************************
------------------------------------------------------------------------------
                         ORCA SCF GRADIENT CALCULATION
------------------------------------------------------------------------------

 ... reading COSX grid (gridx3)
Gradient of the Kohn-Sham DFT energy:
Kohn-Sham wavefunction type      ... RKS
Hartree-Fock exchange scaling    ...    0.250
Number of operators              ...    1
Number of atoms                  ...    3
Basis set dimensions             ...   43
Integral neglect threshold       ... 2.5e-11
Integral primitive cutoff        ... 2.5e-12
SHARK Integral package           ... ON

Nuc. rep. gradient       (SHARK) ... done (  0.0 sec)
HCore & Overlap gradient (SHARK) ... done (  0.0 sec)
RI-J gradient            (SHARK) ... done (  0.0 sec)
COSX-gradient                    ... done (  0.0 sec)
Exchange-correlation gradient    ... done

------------------
CARTESIAN GRADIENT
------------------

   1   O   :   -0.013231093   -0.018649533    0.000000007
   2   H   :   -0.006039909    0.018281078    0.000000001
   3   H   :    0.019252836    0.000401805    0.000000000

Difference to translation invariance:
           :   -0.0000181657    0.0000333495    0.0000000083

Difference to rotation invariance:
           :    0.0000000011   -0.0000000000    0.0000026437

Norm of the cartesian gradient     ...    0.0355580984
RMS gradient                       ...    0.0118526995
MAX gradient                       ...    0.0192528361

-------
TIMINGS
-------

Total SCF gradient time            ...        0.181 sec

One electron gradient       ....       0.002 sec  (  0.9%)
RI-J Coulomb gradient       ....       0.034 sec  ( 18.9%)
COSX gradient               ....       0.050 sec  ( 27.5%)
XC gradient                 ....       0.016 sec  (  8.9%)

Maximum memory used throughout the entire SCFGRAD-calculation: 32.9 MB
------------------------------------------------------------------------------
                         ORCA GEOMETRY RELAXATION STEP
------------------------------------------------------------------------------

Reading the OPT-File                    .... done
Getting information on internals        .... done
Copying old internal coords+grads       .... done
Making the new internal coordinates     .... (new redundants).... done
Validating the new internal coordinates .... (new redundants).... done
Calculating the B-matrix                .... done
Calculating the G,G- and P matrices     .... done
Transforming gradient to internals      .... done
Projecting the internal gradient        .... done
Number of atoms                         ....   3
Number of internal coordinates          ....   3
Current Energy                          ....   -76.376722610 Eh
Current gradient norm                   ....     0.035558098 Eh/bohr
Maximum allowed component of the step   ....  0.300
Current trust radius                    ....  0.300
Evaluating the initial hessian          ....  (Almloef) done
Projecting the Hessian                  .... done
Forming the augmented Hessian           .... done
Diagonalizing the augmented Hessian     .... done
Last element of RFO vector              ....  0.998423685
Lowest eigenvalues of augmented Hessian:
 -0.001530594  0.314230048  0.483173850
Length of the computed step             ....  0.056214764
The final length of the internal step   ....  0.056214764
Converting the step to cartesian space:
 Initial RMS(Int)=    0.0324556093
Transforming coordinates:
 Iter   0:  RMS(Cart)=    0.0166478471 RMS(Int)=    0.0324558384
 Iter   1:  RMS(Cart)=    0.0000185039 RMS(Int)=    0.0000333150
 Iter   2:  RMS(Cart)=    0.0000003985 RMS(Int)=    0.0000007302
 Iter   3:  RMS(Cart)=    0.0000000087 RMS(Int)=    0.0000000159
done
Storing new coordinates                 .... done

                                .--------------------.
          ----------------------|Geometry convergence|-------------------------
          Item                value                   Tolerance       Converged
          ---------------------------------------------------------------------
          RMS gradient        0.0157218747            0.0000300000      NO
          MAX gradient        0.0192602302            0.0001000000      NO
          RMS step            0.0324556093            0.0006000000      NO
          MAX step            0.0397360989            0.0010000000      NO
          ........................................................
          Max(Bonds)      0.0210      Max(Angles)    0.15
          Max(Dihed)        0.00      Max(Improp)    0.00
          ---------------------------------------------------------------------

The optimization has not yet converged - more geometry cycles are needed


    ---------------------------------------------------------------------------
                         Redundant Internal Coordinates
                            (Angstroem and degrees)

        Definition                    Value    dE/dq     Step     New-Value
    ----------------------------------------------------------------------------
     1. B(H   1,O   0)                0.9800  0.019233 -0.0210    0.9590   
     2. B(H   2,O   0)                0.9800  0.019260 -0.0210    0.9589   
     3. A(H   1,O   0,H   2)          104.50  0.000813   -0.15    104.35   
    ----------------------------------------------------------------------------

         *************************************************************
         *                GEOMETRY OPTIMIZATION CYCLE   2            *
         *************************************************************
---------------------------------
CARTESIAN COORDINATES (ANGSTROEM)
---------------------------------
  O     -0.008556   -0.012125    0.000000
  H     -0.287536    0.905372    0.000000
  H      0.949432    0.030703    0.000000

----------------------------
CARTESIAN COORDINATES (A.U.)
----------------------------
  NO LB      ZA    FRAG     MASS         X           Y           Z
   0 O     8.0000    0    15.999   -0.016168   -0.022912    0.000000
   1 H     1.0000    0     1.008   -0.543365    1.710904    0.000000
   2 H     1.0000    0     1.008    1.794167    0.058021    0.000000

--------------------------------
INTERNAL COORDINATES (ANGSTROEM)
--------------------------------
 O      0   0   0     0.000000000000     0.00000000     0.00000000
 H      1   0   0     0.958973256196     0.00000000     0.00000000
 H      1   2   0     0.958944578302   104.35303903     0.00000000

---------------------------
INTERNAL COORDINATES (A.U.)
---------------------------
 O      0   0   0     0.000000000000     0.00000000     0.00000000
 H      1   0   0     1.812196823965     0.00000000     0.00000000
 H      1   2   0     1.812142630600   104.35303903     0.00000000



           ************************************************************
           *        Program running with 6 parallel MPI-processes     *
           *              working on a common directory               *
           ************************************************************
------------------------------------------------------------------------------
                   ___                                                        
                  /   \      - P O W E R E D   B Y -                         
                 /     \                                                     
                 |  |  |   _    _      __       _____    __    __             
                 |  |  |  | |  | |    /  \     |  _  \  |  |  /  |          
                  \  \/   | |  | |   /    \    | | | |  |  | /  /          
                 / \  \   | |__| |  /  /\  \   | |_| |  |  |/  /          
                |  |  |   |  __  | /  /__\  \  |    /   |      \           
                |  |  |   | |  | | |   __   |  |    \   |  |\   \          
                \     /   | |  | | |  |  |  |  | |\  \  |  | \   \       
                 \___/    |_|  |_| |__|  |__|  |_| \__\ |__|  \__/        
                                                                              
                      - O R C A' S   B I G   F R I E N D -                    
                                      &                                       
                       - I N T E G R A L  F E E D E R -                       
                                                                              
 v1 FN, 2020, v2 2021                                                         
------------------------------------------------------------------------------


Reading SHARK input file water_OPT.SHARKINP.tmp ... ok
----------------------
SHARK INTEGRAL PACKAGE
----------------------

Number of atoms                             ...      3
Number of basis functions                   ...     43
Number of shells                            ...     19
Maximum angular momentum                    ...      3
Integral batch strategy                     ... SHARK/LIBINT Hybrid
RI-J (if used) integral strategy            ... SPLIT-RIJ (Revised 2003 algorithm where possible)
Printlevel                                  ...      1
Contraction scheme used                     ... SEGMENTED contraction
Coulomb Range Separation                    ... NOT USED
Exchange Range Separation                   ... NOT USED
Finite Nucleus Model                        ... NOT USED
Auxiliary Coulomb fitting basis             ... AVAILABLE
   # of basis functions in Aux-J            ...     71
   # of shells in Aux-J                     ...     25
   Maximum angular momentum in Aux-J        ...      4
Auxiliary J/K fitting basis                 ... NOT available
Auxiliary Correlation fitting basis         ... NOT available
Auxiliary 'external' fitting basis          ... NOT available
Integral threshold                          ...     2.500000e-11
Primitive cut-off                           ...     2.500000e-12
Primitive pair pre-selection threshold      ...     2.500000e-12

Calculating pre-screening integrals         ... done (  0.0 sec) Dimension = 19
Organizing shell pair data                  ... done (  0.0 sec)
Shell pair information
Total number of shell pairs                 ...       190
Shell pairs after pre-screening             ...       190
Total number of primitive shell pairs       ...       556
Primitive shell pairs kept                  ...       535
          la=0 lb=0:     66 shell pairs
          la=1 lb=0:     55 shell pairs
          la=1 lb=1:     15 shell pairs
          la=2 lb=0:     22 shell pairs
          la=2 lb=1:     10 shell pairs
          la=2 lb=2:      3 shell pairs
          la=3 lb=0:     11 shell pairs
          la=3 lb=1:      5 shell pairs
          la=3 lb=2:      2 shell pairs
          la=3 lb=3:      1 shell pairs

Calculating one electron integrals          ... done (  0.0 sec)
Calculating RI/J V-Matrix + Cholesky decomp.... done (  0.0 sec)
Calculating Nuclear repulsion               ... done (  0.0 sec) ENN=      9.178493741682 Eh

SHARK setup successfully completed in   0.1 seconds

Maximum memory used throughout the entire GTOINT-calculation: 13.6 MB


           ************************************************************
           *        Program running with 6 parallel MPI-processes     *
           *              working on a common directory               *
           ************************************************************

Diagonalization of the overlap matrix:
Smallest eigenvalue                        ... 8.359e-03
Time for diagonalization                   ...    0.000 sec
Threshold for overlap eigenvalues          ... 1.000e-08
Number of eigenvalues below threshold      ... 0
Time for construction of square roots      ...    0.000 sec
Total time needed                          ...    0.001 sec

-------------------
DFT GRID GENERATION
-------------------

General Integration Accuracy     IntAcc      ... 4.388
Radial Grid Type                 RadialGrid  ... OptM3 with GC (2021)
Angular Grid (max. ang.)         AngularGrid ... 4 (Lebedev-302)
Angular grid pruning method      GridPruning ... 4 (adaptive)
Weight generation scheme         WeightScheme... Becke
Basis function cutoff            BFCut       ... 1.0000e-11
Integration weight cutoff        WCut        ... 1.0000e-14
Angular grids for H and He will be reduced by one unit
Partially contracted basis set               ... off
Rotationally invariant grid construction     ... off

Total number of grid points                  ...    12748
Total number of batches                      ...      200
Average number of points per batch           ...       63
Average number of grid points per atom       ...     4249
Time for grid setup =    0.043 sec

--------------------
COSX GRID GENERATION
--------------------

GRIDX 1
-------
General Integration Accuracy     IntAcc      ... 3.816
Radial Grid Type                 RadialGrid  ... OptM3 with GC (2021)
Angular Grid (max. ang.)         AngularGrid ... 1 (Lebedev-50)
Angular grid pruning method      GridPruning ... 4 (adaptive)
Weight generation scheme         WeightScheme... Becke
Basis function cutoff            BFCut       ... 1.0000e-11
Integration weight cutoff        WCut        ... 1.0000e-14
Angular grids for H and He will be reduced by one unit
Partially contracted basis set               ... on
Rotationally invariant grid construction     ... off

Total number of grid points                  ...     1653
Total number of batches                      ...       27
Average number of points per batch           ...       61
Average number of grid points per atom       ...      551
UseSFitting                                  ... on

GRIDX 2
-------
General Integration Accuracy     IntAcc      ... 4.020
Radial Grid Type                 RadialGrid  ... OptM3 with GC (2021)
Angular Grid (max. ang.)         AngularGrid ... 2 (Lebedev-110)
Angular grid pruning method      GridPruning ... 4 (adaptive)
Weight generation scheme         WeightScheme... Becke
Basis function cutoff            BFCut       ... 1.0000e-11
Integration weight cutoff        WCut        ... 1.0000e-14
Angular grids for H and He will be reduced by one unit
Partially contracted basis set               ... on
Rotationally invariant grid construction     ... off

Total number of grid points                  ...     3503
Total number of batches                      ...       57
Average number of points per batch           ...       61
Average number of grid points per atom       ...     1168
UseSFitting                                  ... on

GRIDX 3
-------
General Integration Accuracy     IntAcc      ... 4.338
Radial Grid Type                 RadialGrid  ... OptM3 with GC (2021)
Angular Grid (max. ang.)         AngularGrid ... 3 (Lebedev-194)
Angular grid pruning method      GridPruning ... 4 (adaptive)
Weight generation scheme         WeightScheme... Becke
Basis function cutoff            BFCut       ... 1.0000e-11
Integration weight cutoff        WCut        ... 1.0000e-14
Angular grids for H and He will be reduced by one unit
Partially contracted basis set               ... on
Rotationally invariant grid construction     ... off

Total number of grid points                  ...     7775
Total number of batches                      ...      123
Average number of points per batch           ...       63
Average number of grid points per atom       ...     2592
UseSFitting                                  ... on

Time for X-Grid setup             =    0.022 sec

--------------
SCF ITERATIONS
--------------
ITER       Energy         Delta-E        Max-DP      RMS-DP      [F,P]     Damp
               ***  Starting incremental Fock matrix formation  ***
  0    -76.3771997456   0.000000000000 0.00157135  0.00011144  0.0116108 0.7000
                      *** Initiating the SOSCF procedure ***
                      *** Re-Reading the Fockian *** 
                      *** Removing any level shift *** 
ITER      Energy       Delta-E        Grad      Rot      Max-DP    RMS-DP
  1    -76.37727930  -0.0000795571  0.000853  0.000853  0.003411  0.000280
               *** Restarting incremental Fock matrix formation ***
  2    -76.37741920  -0.0001398926  0.002383  0.003080  0.004306  0.000236
  3    -76.37740240   0.0000167935  0.002882  0.001526  0.002090  0.000135
  4    -76.37744299  -0.0000405846  0.000127  0.000093  0.000061  0.000007
  5    -76.37744305  -0.0000000613  0.000045  0.000020  0.000019  0.000002
                 **** Energy Check signals convergence ****
              ***Rediagonalizing the Fockian in SOSCF/NRSCF***

               *****************************************************
               *                     SUCCESS                       *
               *           SCF CONVERGED AFTER   6 CYCLES          *
               *****************************************************

Old exchange energy                            =     -2.234274170 Eh
New exchange energy                            =     -2.234297382 Eh
Exchange energy change after final integration =     -0.000023211 Eh
Total energy after final integration           =    -76.377466269 Eh
Final COS-X integration done in                =     0.044 sec
Total Energy       :          -76.37746627 Eh           -2078.33652 eV
  Last Energy change         ...   -9.6738e-09  Tolerance :   1.0000e-08
  Last MAX-Density change    ...    5.5511e-16  Tolerance :   1.0000e-07
             **** THE GBW FILE WAS UPDATED (water_OPT.gbw) ****
             **** DENSITY water_OPT.scfp WAS UPDATED ****
             **** ENERGY FILE WAS UPDATED (water_OPT.en.tmp) ****
             **** THE GBW FILE WAS UPDATED (water_OPT.gbw) ****
             **** DENSITY water_OPT.scfp WAS UPDATED ****
Total SCF time: 0 days 0 hours 0 min 0 sec 

Maximum memory used throughout the entire SCF-calculation: 57.6 MB

-------------------------   --------------------
FINAL SINGLE POINT ENERGY       -76.377466268693
-------------------------   --------------------



           ************************************************************
           *        Program running with 6 parallel MPI-processes     *
           *              working on a common directory               *
           ************************************************************
------------------------------------------------------------------------------
                         ORCA SCF GRADIENT CALCULATION
------------------------------------------------------------------------------

 ... reading COSX grid (gridx3)
Gradient of the Kohn-Sham DFT energy:
Kohn-Sham wavefunction type      ... RKS
Hartree-Fock exchange scaling    ...    0.250
Number of operators              ...    1
Number of atoms                  ...    3
Basis set dimensions             ...   43
Integral neglect threshold       ... 2.5e-11
Integral primitive cutoff        ... 2.5e-12
SHARK Integral package           ... ON

Nuc. rep. gradient       (SHARK) ... done (  0.0 sec)
HCore & Overlap gradient (SHARK) ... done (  0.0 sec)
RI-J gradient            (SHARK) ... done (  0.0 sec)
COSX-gradient                    ... done (  0.1 sec)
Exchange-correlation gradient    ... done

------------------
CARTESIAN GRADIENT
------------------

   1   O   :   -0.000356259   -0.000462484   -0.000000007
   2   H   :    0.001349659   -0.000582253    0.000000001
   3   H   :   -0.001026762    0.001080223   -0.000000003

Difference to translation invariance:
           :   -0.0000333622    0.0000354856   -0.0000000087

Difference to rotation invariance:
           :    0.0000000014    0.0000000051    0.0000042270

Norm of the cartesian gradient     ...    0.0021731387
RMS gradient                       ...    0.0007243796
MAX gradient                       ...    0.0013496588

-------
TIMINGS
-------

Total SCF gradient time            ...        0.190 sec

One electron gradient       ....       0.002 sec  (  1.2%)
RI-J Coulomb gradient       ....       0.037 sec  ( 19.5%)
COSX gradient               ....       0.056 sec  ( 29.5%)
XC gradient                 ....       0.018 sec  (  9.7%)

Maximum memory used throughout the entire SCFGRAD-calculation: 32.9 MB
------------------------------------------------------------------------------
                         ORCA GEOMETRY RELAXATION STEP
------------------------------------------------------------------------------

Reading the OPT-File                    .... done
Getting information on internals        .... done
Copying old internal coords+grads       .... done
Making the new internal coordinates     .... (new redundants).... done
Validating the new internal coordinates .... (new redundants).... done
Calculating the B-matrix                .... done
Calculating the G,G- and P matrices     .... done
Transforming gradient to internals      .... done
Projecting the internal gradient        .... done
Number of atoms                         ....   3
Number of internal coordinates          ....   3
Current Energy                          ....   -76.377466269 Eh
Current gradient norm                   ....     0.002173139 Eh/bohr
Maximum allowed component of the step   ....  0.300
Current trust radius                    ....  0.300
Updating the Hessian (BFGS)             .... done
Forming the augmented Hessian           .... done
Diagonalizing the augmented Hessian     .... done
Last element of RFO vector              ....  0.999978752
Lowest eigenvalues of augmented Hessian:
 -0.000015505  0.312175043  0.483173685
Length of the computed step             ....  0.006519027
The final length of the internal step   ....  0.006519027
Converting the step to cartesian space:
 Initial RMS(Int)=    0.0037637621
Transforming coordinates:
 Iter   0:  RMS(Cart)=    0.0023830397 RMS(Int)=    0.0037632376
 Iter   1:  RMS(Cart)=    0.0000030157 RMS(Int)=    0.0000075770
 Iter   2:  RMS(Cart)=    0.0000000120 RMS(Int)=    0.0000000184
done
Storing new coordinates                 .... done

                                .--------------------.
          ----------------------|Geometry convergence|-------------------------
          Item                value                   Tolerance       Converged
          ---------------------------------------------------------------------
          Energy change      -0.0007436591            0.0000010000      NO
          RMS gradient        0.0014131153            0.0000300000      NO
          MAX gradient        0.0020312468            0.0001000000      NO
          RMS step            0.0037637621            0.0006000000      NO
          MAX step            0.0061158404            0.0010000000      NO
          ........................................................
          Max(Bonds)      0.0008      Max(Angles)    0.35
          Max(Dihed)        0.00      Max(Improp)    0.00
          ---------------------------------------------------------------------

The optimization has not yet converged - more geometry cycles are needed


    ---------------------------------------------------------------------------
                         Redundant Internal Coordinates
                            (Angstroem and degrees)

        Definition                    Value    dE/dq     Step     New-Value
    ----------------------------------------------------------------------------
     1. B(H   1,O   0)                0.9590 -0.000968  0.0008    0.9598   
     2. B(H   2,O   0)                0.9589 -0.000963  0.0008    0.9598   
     3. A(H   1,O   0,H   2)          104.35 -0.002031    0.35    104.70   
    ----------------------------------------------------------------------------

         *************************************************************
         *                GEOMETRY OPTIMIZATION CYCLE   3            *
         *************************************************************
---------------------------------
CARTESIAN COORDINATES (ANGSTROEM)
---------------------------------
  O     -0.007860   -0.011144    0.000000
  H     -0.289895    0.906304    0.000000
  H      0.951095    0.028790    0.000000

----------------------------
CARTESIAN COORDINATES (A.U.)
----------------------------
  NO LB      ZA    FRAG     MASS         X           Y           Z
   0 O     8.0000    0    15.999   -0.014854   -0.021059    0.000000
   1 H     1.0000    0     1.008   -0.547822    1.712666    0.000000
   2 H     1.0000    0     1.008    1.797310    0.054405    0.000000

--------------------------------
INTERNAL COORDINATES (ANGSTROEM)
--------------------------------
 O      0   0   0     0.000000000000     0.00000000     0.00000000
 H      1   0   0     0.959820216168     0.00000000     0.00000000
 H      1   2   0     0.959786708539   104.70345088     0.00000000

---------------------------
INTERNAL COORDINATES (A.U.)
---------------------------
 O      0   0   0     0.000000000000     0.00000000     0.00000000
 H      1   0   0     1.813797346358     0.00000000     0.00000000
 H      1   2   0     1.813734026116   104.70345088     0.00000000



           ************************************************************
           *        Program running with 6 parallel MPI-processes     *
           *              working on a common directory               *
           ************************************************************
------------------------------------------------------------------------------
                   ___                                                        
                  /   \      - P O W E R E D   B Y -                         
                 /     \                                                     
                 |  |  |   _    _      __       _____    __    __             
                 |  |  |  | |  | |    /  \     |  _  \  |  |  /  |          
                  \  \/   | |  | |   /    \    | | | |  |  | /  /          
                 / \  \   | |__| |  /  /\  \   | |_| |  |  |/  /          
                |  |  |   |  __  | /  /__\  \  |    /   |      \           
                |  |  |   | |  | | |   __   |  |    \   |  |\   \          
                \     /   | |  | | |  |  |  |  | |\  \  |  | \   \       
                 \___/    |_|  |_| |__|  |__|  |_| \__\ |__|  \__/        
                                                                              
                      - O R C A' S   B I G   F R I E N D -                    
                                      &                                       
                       - I N T E G R A L  F E E D E R -                       
                                                                              
 v1 FN, 2020, v2 2021                                                         
------------------------------------------------------------------------------


Reading SHARK input file water_OPT.SHARKINP.tmp ... ok
----------------------
SHARK INTEGRAL PACKAGE
----------------------

Number of atoms                             ...      3
Number of basis functions                   ...     43
Number of shells                            ...     19
Maximum angular momentum                    ...      3
Integral batch strategy                     ... SHARK/LIBINT Hybrid
RI-J (if used) integral strategy            ... SPLIT-RIJ (Revised 2003 algorithm where possible)
Printlevel                                  ...      1
Contraction scheme used                     ... SEGMENTED contraction
Coulomb Range Separation                    ... NOT USED
Exchange Range Separation                   ... NOT USED
Finite Nucleus Model                        ... NOT USED
Auxiliary Coulomb fitting basis             ... AVAILABLE
   # of basis functions in Aux-J            ...     71
   # of shells in Aux-J                     ...     25
   Maximum angular momentum in Aux-J        ...      4
Auxiliary J/K fitting basis                 ... NOT available
Auxiliary Correlation fitting basis         ... NOT available
Auxiliary 'external' fitting basis          ... NOT available
Integral threshold                          ...     2.500000e-11
Primitive cut-off                           ...     2.500000e-12
Primitive pair pre-selection threshold      ...     2.500000e-12

Calculating pre-screening integrals         ... done (  0.0 sec) Dimension = 19
Organizing shell pair data                  ... done (  0.0 sec)
Shell pair information
Total number of shell pairs                 ...       190
Shell pairs after pre-screening             ...       190
Total number of primitive shell pairs       ...       556
Primitive shell pairs kept                  ...       535
          la=0 lb=0:     66 shell pairs
          la=1 lb=0:     55 shell pairs
          la=1 lb=1:     15 shell pairs
          la=2 lb=0:     22 shell pairs
          la=2 lb=1:     10 shell pairs
          la=2 lb=2:      3 shell pairs
          la=3 lb=0:     11 shell pairs
          la=3 lb=1:      5 shell pairs
          la=3 lb=2:      2 shell pairs
          la=3 lb=3:      1 shell pairs

Calculating one electron integrals          ... done (  0.0 sec)
Calculating RI/J V-Matrix + Cholesky decomp.... done (  0.0 sec)
Calculating Nuclear repulsion               ... done (  0.0 sec) ENN=      9.169592542639 Eh

SHARK setup successfully completed in   0.1 seconds

Maximum memory used throughout the entire GTOINT-calculation: 13.6 MB


           ************************************************************
           *        Program running with 6 parallel MPI-processes     *
           *              working on a common directory               *
           ************************************************************

Diagonalization of the overlap matrix:
Smallest eigenvalue                        ... 8.393e-03
Time for diagonalization                   ...    0.000 sec
Threshold for overlap eigenvalues          ... 1.000e-08
Number of eigenvalues below threshold      ... 0
Time for construction of square roots      ...    0.000 sec
Total time needed                          ...    0.001 sec

-------------------
DFT GRID GENERATION
-------------------

General Integration Accuracy     IntAcc      ... 4.388
Radial Grid Type                 RadialGrid  ... OptM3 with GC (2021)
Angular Grid (max. ang.)         AngularGrid ... 4 (Lebedev-302)
Angular grid pruning method      GridPruning ... 4 (adaptive)
Weight generation scheme         WeightScheme... Becke
Basis function cutoff            BFCut       ... 1.0000e-11
Integration weight cutoff        WCut        ... 1.0000e-14
Angular grids for H and He will be reduced by one unit
Partially contracted basis set               ... off
Rotationally invariant grid construction     ... off

Total number of grid points                  ...    12750
Total number of batches                      ...      200
Average number of points per batch           ...       63
Average number of grid points per atom       ...     4250
Time for grid setup =    0.037 sec

--------------------
COSX GRID GENERATION
--------------------

GRIDX 1
-------
General Integration Accuracy     IntAcc      ... 3.816
Radial Grid Type                 RadialGrid  ... OptM3 with GC (2021)
Angular Grid (max. ang.)         AngularGrid ... 1 (Lebedev-50)
Angular grid pruning method      GridPruning ... 4 (adaptive)
Weight generation scheme         WeightScheme... Becke
Basis function cutoff            BFCut       ... 1.0000e-11
Integration weight cutoff        WCut        ... 1.0000e-14
Angular grids for H and He will be reduced by one unit
Partially contracted basis set               ... on
Rotationally invariant grid construction     ... off

Total number of grid points                  ...     1652
Total number of batches                      ...       27
Average number of points per batch           ...       61
Average number of grid points per atom       ...      551
UseSFitting                                  ... on

GRIDX 2
-------
General Integration Accuracy     IntAcc      ... 4.020
Radial Grid Type                 RadialGrid  ... OptM3 with GC (2021)
Angular Grid (max. ang.)         AngularGrid ... 2 (Lebedev-110)
Angular grid pruning method      GridPruning ... 4 (adaptive)
Weight generation scheme         WeightScheme... Becke
Basis function cutoff            BFCut       ... 1.0000e-11
Integration weight cutoff        WCut        ... 1.0000e-14
Angular grids for H and He will be reduced by one unit
Partially contracted basis set               ... on
Rotationally invariant grid construction     ... off

Total number of grid points                  ...     3503
Total number of batches                      ...       57
Average number of points per batch           ...       61
Average number of grid points per atom       ...     1168
UseSFitting                                  ... on

GRIDX 3
-------
General Integration Accuracy     IntAcc      ... 4.338
Radial Grid Type                 RadialGrid  ... OptM3 with GC (2021)
Angular Grid (max. ang.)         AngularGrid ... 3 (Lebedev-194)
Angular grid pruning method      GridPruning ... 4 (adaptive)
Weight generation scheme         WeightScheme... Becke
Basis function cutoff            BFCut       ... 1.0000e-11
Integration weight cutoff        WCut        ... 1.0000e-14
Angular grids for H and He will be reduced by one unit
Partially contracted basis set               ... on
Rotationally invariant grid construction     ... off

Total number of grid points                  ...     7775
Total number of batches                      ...      123
Average number of points per batch           ...       63
Average number of grid points per atom       ...     2592
UseSFitting                                  ... on

Time for X-Grid setup             =    0.025 sec

--------------
SCF ITERATIONS
--------------
ITER       Energy         Delta-E        Max-DP      RMS-DP      [F,P]     Damp
               ***  Starting incremental Fock matrix formation  ***
                      *** Initiating the SOSCF procedure ***
                      *** Re-Reading the Fockian *** 
                      *** Removing any level shift *** 
ITER      Energy       Delta-E        Grad      Rot      Max-DP    RMS-DP
  0    -76.37745181 -76.3774518064  0.000439  0.000439  0.000391  0.000039
               *** Restarting incremental Fock matrix formation ***
  1    -76.37745320  -0.0000013927  0.000114  0.000139  0.000282  0.000020
  2    -76.37745321  -0.0000000074  0.000145  0.000080  0.000110  0.000007
  3    -76.37745331  -0.0000001054  0.000014  0.000013  0.000014  0.000001
  4    -76.37745331  -0.0000000011  0.000006  0.000003  0.000003  0.000000
                 **** Energy Check signals convergence ****
              ***Rediagonalizing the Fockian in SOSCF/NRSCF***

               *****************************************************
               *                     SUCCESS                       *
               *           SCF CONVERGED AFTER   5 CYCLES          *
               *****************************************************

Old exchange energy                            =     -2.234040679 Eh
New exchange energy                            =     -2.234064176 Eh
Exchange energy change after final integration =     -0.000023498 Eh
Total energy after final integration           =    -76.377476811 Eh
Final COS-X integration done in                =     0.038 sec
Total Energy       :          -76.37747681 Eh           -2078.33680 eV
  Last Energy change         ...   -7.0159e-11  Tolerance :   1.0000e-08
  Last MAX-Density change    ...    2.7756e-16  Tolerance :   1.0000e-07
             **** THE GBW FILE WAS UPDATED (water_OPT.gbw) ****
             **** DENSITY water_OPT.scfp WAS UPDATED ****
             **** ENERGY FILE WAS UPDATED (water_OPT.en.tmp) ****
             **** THE GBW FILE WAS UPDATED (water_OPT.gbw) ****
             **** DENSITY water_OPT.scfp WAS UPDATED ****
Total SCF time: 0 days 0 hours 0 min 0 sec 

Maximum memory used throughout the entire SCF-calculation: 57.6 MB

-------------------------   --------------------
FINAL SINGLE POINT ENERGY       -76.377476810849
-------------------------   --------------------



           ************************************************************
           *        Program running with 6 parallel MPI-processes     *
           *              working on a common directory               *
           ************************************************************
------------------------------------------------------------------------------
                         ORCA SCF GRADIENT CALCULATION
------------------------------------------------------------------------------

 ... reading COSX grid (gridx3)
Gradient of the Kohn-Sham DFT energy:
Kohn-Sham wavefunction type      ... RKS
Hartree-Fock exchange scaling    ...    0.250
Number of operators              ...    1
Number of atoms                  ...    3
Basis set dimensions             ...   43
Integral neglect threshold       ... 2.5e-11
Integral primitive cutoff        ... 2.5e-12
SHARK Integral package           ... ON

Nuc. rep. gradient       (SHARK) ... done (  0.0 sec)
HCore & Overlap gradient (SHARK) ... done (  0.0 sec)
RI-J gradient            (SHARK) ... done (  0.0 sec)
COSX-gradient                    ... done (  0.1 sec)
Exchange-correlation gradient    ... done

------------------
CARTESIAN GRADIENT
------------------

   1   O   :   -0.000563461   -0.000770280   -0.000000006
   2   H   :    0.000476192    0.000263740    0.000000001
   3   H   :    0.000056944    0.000538685    0.000000000

Difference to translation invariance:
           :   -0.0000303253    0.0000321450   -0.0000000042

Difference to rotation invariance:
           :    0.0000000017   -0.0000000004    0.0000046204

Norm of the cartesian gradient     ...    0.0012249737
RMS gradient                       ...    0.0004083246
MAX gradient                       ...    0.0007702796

-------
TIMINGS
-------

Total SCF gradient time            ...        0.177 sec

One electron gradient       ....       0.001 sec  (  0.8%)
RI-J Coulomb gradient       ....       0.035 sec  ( 19.9%)
COSX gradient               ....       0.050 sec  ( 28.3%)
XC gradient                 ....       0.016 sec  (  9.0%)

Maximum memory used throughout the entire SCFGRAD-calculation: 32.9 MB
------------------------------------------------------------------------------
                         ORCA GEOMETRY RELAXATION STEP
------------------------------------------------------------------------------

Reading the OPT-File                    .... done
Getting information on internals        .... done
Copying old internal coords+grads       .... done
Making the new internal coordinates     .... (new redundants).... done
Validating the new internal coordinates .... (new redundants).... done
Calculating the B-matrix                .... done
Calculating the G,G- and P matrices     .... done
Transforming gradient to internals      .... done
Projecting the internal gradient        .... done
Number of atoms                         ....   3
Number of internal coordinates          ....   3
Current Energy                          ....   -76.377476811 Eh
Current gradient norm                   ....     0.001224974 Eh/bohr
Maximum allowed component of the step   ....  0.300
Current trust radius                    ....  0.300
Updating the Hessian (BFGS)             .... done
Forming the augmented Hessian           .... done
Diagonalizing the augmented Hessian     .... done
Last element of RFO vector              ....  0.999983095
Lowest eigenvalues of augmented Hessian:
 -0.000005650  0.166788582  0.483173249
Length of the computed step             ....  0.005814735
The final length of the internal step   ....  0.005814735
Converting the step to cartesian space:
 Initial RMS(Int)=    0.0033571389
Transforming coordinates:
 Iter   0:  RMS(Cart)=    0.0018397751 RMS(Int)=    0.0033572258
 Iter   1:  RMS(Cart)=    0.0000032660 RMS(Int)=    0.0000062525
 Iter   2:  RMS(Cart)=    0.0000000075 RMS(Int)=    0.0000000141
done
Storing new coordinates                 .... done

                                .--------------------.
          ----------------------|Geometry convergence|-------------------------
[...]
  32   0.0000       5.396846       146.8556 
  33   0.0000       5.420418       147.4971 
  34   0.0000       5.484775       149.2483 
  35   0.0000       6.062317       164.9640 
  36   0.0000       6.245681       169.9536 
  37   0.0000       6.330431       172.2598 
  38   0.0000       6.394675       174.0080 
  39   0.0000       6.442645       175.3133 
  40   0.0000       6.935928       188.7362 
  41   0.0000       7.012228       190.8124 
  42   0.0000      43.348093      1179.5616 

                    ********************************
                    * MULLIKEN POPULATION ANALYSIS *
                    ********************************

-----------------------
MULLIKEN ATOMIC CHARGES
-----------------------
   0 O :   -0.647014
   1 H :    0.323520
   2 H :    0.323494
Sum of atomic charges:   -0.0000000

--------------------------------
MULLIKEN REDUCED ORBITAL CHARGES
--------------------------------
  0 O s       :     3.808550  s :     3.808550
      pz      :     1.962632  p :     4.814909
      px      :     1.372121
      py      :     1.480157
      dz2     :     0.004691  d :     0.022188
      dxz     :     0.000878
      dyz     :     0.001755
      dx2y2   :     0.012755
      dxy     :     0.002110
      f0      :     0.000145  f :     0.001367
      f+1     :     0.000426
      f-1     :     0.000359
      f+2     :     0.000001
      f-2     :     0.000012
      f+3     :     0.000404
      f-3     :     0.000021
  1 H s       :     0.628152  s :     0.628152
      pz      :     0.017288  p :     0.048329
      px      :     0.012177
      py      :     0.018863
  2 H s       :     0.628172  s :     0.628172
      pz      :     0.017290  p :     0.048334
      px      :     0.019273
      py      :     0.011771


                     *******************************
                     * LOEWDIN POPULATION ANALYSIS *
                     *******************************

----------------------
LOEWDIN ATOMIC CHARGES
----------------------
   0 O :   -0.307888
   1 H :    0.153956
   2 H :    0.153932

-------------------------------
LOEWDIN REDUCED ORBITAL CHARGES
-------------------------------
  0 O s       :     3.459183  s :     3.459183
      pz      :     1.902668  p :     4.813612
      px      :     1.401425
      py      :     1.509519
      dz2     :     0.006565  d :     0.032653
      dxz     :     0.000311
      dyz     :     0.000622
      dx2y2   :     0.022218
      dxy     :     0.002936
      f0      :     0.000001  f :     0.002440
      f+1     :     0.000631
      f-1     :     0.000481
      f+2     :     0.000000
      f-2     :     0.000000
      f+3     :     0.001015
      f-3     :     0.000313
  1 H s       :     0.683131  s :     0.683131
      pz      :     0.048197  p :     0.162913
      px      :     0.032012
      py      :     0.082704
  2 H s       :     0.683139  s :     0.683139
      pz      :     0.048202  p :     0.162929
      px      :     0.082966
      py      :     0.031760


                      *****************************
                      * MAYER POPULATION ANALYSIS *
                      *****************************

  NA   - Mulliken gross atomic population
  ZA   - Total nuclear charge
  QA   - Mulliken gross atomic charge
  VA   - Mayer's total valence
  BVA  - Mayer's bonded valence
  FA   - Mayer's free valence

  ATOM       NA         ZA         QA         VA         BVA        FA
  0 O      8.6470     8.0000    -0.6470     1.8143     1.8143    -0.0000
  1 H      0.6765     1.0000     0.3235     0.9126     0.9126     0.0000
  2 H      0.6765     1.0000     0.3235     0.9126     0.9126     0.0000

  Mayer bond orders larger than 0.100000
B(  0-O ,  1-H ) :   0.9071 B(  0-O ,  2-H ) :   0.9072 

-------
TIMINGS
-------

Total SCF time: 0 days 0 hours 0 min 0 sec 

Total time                  ....       0.321 sec
Sum of individual times     ....       0.271 sec  ( 84.4%)

Fock matrix formation       ....       0.202 sec  ( 63.0%)
  Split-RI-J                ....       0.079 sec  ( 38.9% of F)
  Chain of spheres X        ....       0.104 sec  ( 51.2% of F)
  XC integration            ....       0.020 sec  ( 10.0% of F)
    Basis function eval.    ....       0.003 sec  ( 17.2% of XC)
    Density eval.           ....       0.002 sec  (  8.9% of XC)
    XC-Functional eval.     ....       0.002 sec  (  8.5% of XC)
    XC-Potential eval.      ....       0.002 sec  (  8.8% of XC)
Diagonalization             ....       0.001 sec  (  0.3%)
Density matrix formation    ....       0.000 sec  (  0.1%)
Population analysis         ....       0.001 sec  (  0.4%)
Initial guess               ....       0.001 sec  (  0.3%)
Orbital Transformation      ....       0.000 sec  (  0.0%)
Orbital Orthonormalization  ....       0.000 sec  (  0.0%)
DIIS solution               ....       0.002 sec  (  0.8%)
SOSCF solution              ....       0.001 sec  (  0.3%)
Grid generation             ....       0.062 sec  ( 19.2%)

Maximum memory used throughout the entire SCF-calculation: 57.6 MB

-------------------------   --------------------
FINAL SINGLE POINT ENERGY       -76.377479912658
-------------------------   --------------------

                                *** OPTIMIZATION RUN DONE ***

                            ***************************************
                            *     ORCA property calculations      *
                            ***************************************

                                    ---------------------
                                    Active property flags
                                    ---------------------
   (+) Dipole Moment


------------------------------------------------------------------------------
                       ORCA ELECTRIC PROPERTIES CALCULATION
------------------------------------------------------------------------------

Dipole Moment Calculation                       ... on
Quadrupole Moment Calculation                   ... off
Polarizability Calculation                      ... off
GBWName                                         ... water_OPT.gbw
Electron density                                ... water_OPT.scfp
The origin for moment calculation is the CENTER OF MASS  = ( 0.058291,  0.082396  0.000000)

-------------
DIPOLE MOMENT
-------------
                                X             Y             Z
Electronic contribution:     -0.09140      -0.12926       0.00000
Nuclear contribution   :      0.56095       0.79335       0.00000
                        -----------------------------------------
Total Dipole Moment    :      0.46955       0.66410       0.00000
                        -----------------------------------------
Magnitude (a.u.)       :      0.81333
Magnitude (Debye)      :      2.06732



--------------------
Rotational spectrum 
--------------------
 
Rotational constants in cm-1:    27.639122    14.416842     9.474729 
Rotational constants in MHz : 828600.029089 432206.038942 284045.219578 

 Dipole components along the rotational axes: 
x,y,z [a.u.] :     0.000052     0.813330     0.000000 
x,y,z [Debye]:     0.000132     2.067320     0.000000 

 


           ************************************************************
           *        Program running with 6 parallel MPI-processes     *
           *              working on a common directory               *
           ************************************************************

-------------------------------------------------------------------------------
                               ORCA SCF HESSIAN
-------------------------------------------------------------------------------

Hessian of the Kohn-Sham DFT energy:
Kohn-Sham wavefunction type                      ... RKS
Hartree-Fock exchange scaling                    ...    0.250
Number of operators                              ...    1
Number of atoms                                  ...    3
Basis set dimensions                             ...   43
Integral neglect threshold                       ... 2.5e-11
Integral primitive cutoff                        ... 2.5e-12

Setting up DFT Hessian calculations              ... 

HESS GRID
---------

General Integration Accuracy     IntAcc      ... 4.629
Radial Grid Type                 RadialGrid  ... OptM3 with GC (2021)
Angular Grid (max. ang.)         AngularGrid ... 5 (Lebedev-434)
Angular grid pruning method      GridPruning ... 4 (adaptive)
Weight generation scheme         WeightScheme... Becke
Basis function cutoff            BFCut       ... 1.0000e-11
Integration weight cutoff        WCut        ... 1.0000e-14
Angular grids for H and He will be reduced by one unit
Partially contracted basis set               ... off
Rotationally invariant grid construction     ... off

Total number of grid points                  ...    19956
Total number of batches                      ...      314
Average number of points per batch           ...       63
Average number of grid points per atom       ...     6652

Building densities                               ... done   (      0.0 sec)
Calculating rho(r) on the grid                   ... done   (      0.0 sec)
Building xc-kernel on the grid                   ... done   (      0.0 sec)
                                                     done   (      0.1 sec)

Nuclear repulsion Hessian  (SHARK)               ... done   (      0.0 sec)

----------------------------------------------
Forming right-hand sides of CP-SCF equations     ...
----------------------------------------------
One electron integral derivatives  (SHARK)       ... done   (      0.0 sec)
Transforming the overlap derivative matrices     ... done   (      0.0 sec)
Making the Q(x) pseudodensities                  ... done   (      0.0 sec)
Adding the E*S(x)*S(y) terms to the Hessian      ... done   (      0.0 sec)
Calculating energy weighted overlap derivatives  ... done   (      0.0 sec)
Two electron integral derivatives (SHARK-RI)     ... done   (      0.1 sec)
Exchange-correlation integral derivatives        ... done   (      0.2 sec)
tr(F(y)Q(x)) contribution to the Hessian         ... done   (      0.0 sec)
Response fock operator R(S(x)) (SHARK-RIJCOSX)   ... done   (      0.1 sec)
XC Response fock operator R(S(x))                ... done   (      0.0 sec)
tr(F(y)S(x)) contribution to the Hessian         ... done   (      0.0 sec)
Transforming and finalizing RHSs                 ... done   (      0.0 sec)

----------------------------------------------
Solving the CP-SCF equations (RIJCOSX)           ...
----------------------------------------------
     CP-SCF ITERATION   0:   1.5019e-01 (   0.1 sec   0/  9 done)
     CP-SCF ITERATION   1:   1.6044e-02 (   0.1 sec   0/  9 done)
     CP-SCF ITERATION   2:   2.4843e-03 (   0.1 sec   0/  9 done)
     CP-SCF ITERATION   3:   3.0776e-04 (   0.1 sec   4/  9 done)
     CP-SCF ITERATION   4:   5.6751e-05 (   0.1 sec   9/  9 done)
                    *** THE CP-SCF HAS CONVERGED ***

                                                 ... done   (      0.6 sec)
Forming perturbed density Hessian contributions  ... done   (      0.0 sec)
2nd integral derivative contribs (SHARK-RI)      ... done   (      0.2 sec)
Exchange-correlation Hessian                     ... done   (      0.1 sec)
Dipole derivatives                               ... done   (      0.1 sec)

Total SCF Hessian time: 0 days 0 hours 0 min 1 sec 

Writing the Hessian file to the disk             ... done


Maximum memory used throughout the entire SCFHESS-calculation: 66.4 MB

-----------------------
VIBRATIONAL FREQUENCIES
-----------------------

Scaling factor for frequencies =  1.000000000  (already applied!)

   0:         0.00 cm**-1
   1:         0.00 cm**-1
   2:         0.00 cm**-1
   3:         0.00 cm**-1
   4:         0.00 cm**-1
   5:         0.00 cm**-1
   6:      1622.85 cm**-1
   7:      3850.35 cm**-1
   8:      3957.62 cm**-1


------------
NORMAL MODES
------------

These modes are the Cartesian displacements weighted by the diagonal matrix
M(i,i)=1/sqrt(m[i]) where m[i] is the mass of the displaced atom
Thus, these vectors are normalized but *not* orthogonal

                  0          1          2          3          4          5    
      0       0.000000   0.000000   0.000000   0.000000   0.000000   0.000000
      1       0.000000   0.000000   0.000000   0.000000   0.000000   0.000000
      2       0.000000   0.000000   0.000000   0.000000   0.000000   0.000000
      3       0.000000   0.000000   0.000000   0.000000   0.000000   0.000000
      4       0.000000   0.000000   0.000000   0.000000   0.000000   0.000000
      5       0.000000   0.000000   0.000000   0.000000   0.000000   0.000000
      6       0.000000   0.000000   0.000000   0.000000   0.000000   0.000000
      7       0.000000   0.000000   0.000000   0.000000   0.000000   0.000000
      8       0.000000   0.000000   0.000000   0.000000   0.000000   0.000000
                  6          7          8    
      0       0.040999   0.028516  -0.057617
      1       0.057988   0.040393   0.040705
      2       0.000000   0.000000   0.000000
      3      -0.671628   0.253022   0.209286
      4      -0.215362  -0.659759  -0.673177
      5       0.000000   0.000000   0.000000
      6       0.020888  -0.705624   0.705210
      7      -0.705022   0.018645   0.027113
      8       0.000000   0.000000   0.000000


-----------
IR SPECTRUM
-----------

 Mode   freq       eps      Int      T**2         TX        TY        TZ
       cm**-1   L/(mol*cm) km/mol    a.u.
----------------------------------------------------------------------------
  6:   1622.85   0.016207   81.91  0.003117  (-0.032245 -0.045573 -0.000000)
  7:   3850.35   0.001221    6.17  0.000099  (-0.005730 -0.008134 -0.000000)
  8:   3957.62   0.009792   49.48  0.000772  ( 0.022681 -0.016051  0.000000)

* The epsilon (eps) is given for a Dirac delta lineshape.
** The dipole moment derivative (T) already includes vibrational overlap.

The first frequency considered to be a vibration is 6
The total number of vibrations considered is 3


--------------------------
THERMOCHEMISTRY AT 298.15K
--------------------------

Temperature         ... 298.15 K
Pressure            ... 1.00 atm
Total Mass          ... 18.02 AMU

Throughout the following assumptions are being made:
  (1) The electronic state is orbitally nondegenerate
  (2) There are no thermally accessible electronically excited states
  (3) Hindered rotations indicated by low frequency modes are not
      treated as such but are treated as vibrations and this may
      cause some error
  (4) All equations used are the standard statistical mechanics
      equations for an ideal gas
  (5) All vibrations are strictly harmonic

freq.    1622.85  E(vib)   ...       0.00 
freq.    3850.35  E(vib)   ...       0.00 
freq.    3957.62  E(vib)   ...       0.00 

------------
INNER ENERGY
------------

The inner energy is: U= E(el) + E(ZPE) + E(vib) + E(rot) + E(trans)
    E(el)   - is the total energy from the electronic structure calculation
              = E(kin-el) + E(nuc-el) + E(el-el) + E(nuc-nuc)
    E(ZPE)  - the the zero temperature vibrational energy from the frequency calculation
    E(vib)  - the the finite temperature correction to E(ZPE) due to population
              of excited vibrational states
    E(rot)  - is the rotational thermal energy
    E(trans)- is the translational thermal energy

Summary of contributions to the inner energy U:
Electronic energy                ...    -76.37747991 Eh
Zero point energy                ...      0.02148498 Eh      13.48 kcal/mol
Thermal vibrational correction   ...      0.00000294 Eh       0.00 kcal/mol
Thermal rotational correction    ...      0.00141627 Eh       0.89 kcal/mol
Thermal translational correction ...      0.00141627 Eh       0.89 kcal/mol
-----------------------------------------------------------------------
Total thermal energy                    -76.35315945 Eh


Summary of corrections to the electronic energy:
(perhaps to be used in another calculation)
Total thermal correction                  0.00283548 Eh       1.78 kcal/mol
Non-thermal (ZPE) correction              0.02148498 Eh      13.48 kcal/mol
-----------------------------------------------------------------------
Total correction                          0.02432046 Eh      15.26 kcal/mol


--------
ENTHALPY
--------

The enthalpy is H = U + kB*T
                kB is Boltzmann's constant
Total free energy                 ...    -76.35315945 Eh 
Thermal Enthalpy correction       ...      0.00094421 Eh       0.59 kcal/mol
-----------------------------------------------------------------------
Total Enthalpy                    ...    -76.35221524 Eh


Note: Rotational entropy computed according to Herzberg 
Infrared and Raman Spectra, Chapter V,1, Van Nostrand Reinhold, 1945 
Point Group:  C2v, Symmetry Number:   2  
Rotational constants in cm-1:    27.639122    14.416842     9.474729 

Vibrational entropy computed according to the QRRHO of S. Grimme
Chem.Eur.J. 2012 18 9955


-------
ENTROPY
-------

The entropy contributions are T*S = T*(S(el)+S(vib)+S(rot)+S(trans))
     S(el)   - electronic entropy
     S(vib)  - vibrational entropy
     S(rot)  - rotational entropy
     S(trans)- translational entropy
The entropies will be listed as multiplied by the temperature to get
units of energy

Electronic entropy                ...      0.00000000 Eh      0.00 kcal/mol
Vibrational entropy               ...      0.00000331 Eh      0.00 kcal/mol
Rotational entropy                ...      0.00496810 Eh      3.12 kcal/mol
Translational entropy             ...      0.01644380 Eh     10.32 kcal/mol
-----------------------------------------------------------------------
Final entropy term                ...      0.02141521 Eh     13.44 kcal/mol

In case the symmetry of your molecule has not been determined correctly
or in case you have a reason to use a different symmetry number we print 
out the resulting rotational entropy values for sn=1,12 :
 --------------------------------------------------------
|  sn= 1 | S(rot)=       0.00562255 Eh      3.53 kcal/mol|
|  sn= 2 | S(rot)=       0.00496810 Eh      3.12 kcal/mol|
|  sn= 3 | S(rot)=       0.00458526 Eh      2.88 kcal/mol|
|  sn= 4 | S(rot)=       0.00431364 Eh      2.71 kcal/mol|
|  sn= 5 | S(rot)=       0.00410295 Eh      2.57 kcal/mol|
|  sn= 6 | S(rot)=       0.00393081 Eh      2.47 kcal/mol|
|  sn= 7 | S(rot)=       0.00378526 Eh      2.38 kcal/mol|
|  sn= 8 | S(rot)=       0.00365918 Eh      2.30 kcal/mol|
|  sn= 9 | S(rot)=       0.00354797 Eh      2.23 kcal/mol|
|  sn=10 | S(rot)=       0.00344849 Eh      2.16 kcal/mol|
|  sn=11 | S(rot)=       0.00335850 Eh      2.11 kcal/mol|
|  sn=12 | S(rot)=       0.00327635 Eh      2.06 kcal/mol|
 --------------------------------------------------------


-------------------
GIBBS FREE ENERGY
-------------------

The Gibbs free energy is G = H - T*S

Total enthalpy                    ...    -76.35221524 Eh 
Total entropy correction          ...     -0.02141521 Eh    -13.44 kcal/mol
-----------------------------------------------------------------------
Final Gibbs free energy         ...    -76.37363045 Eh

For completeness - the Gibbs free energy minus the electronic energy
G-E(el)                           ...      0.00384946 Eh      2.42 kcal/mol


Timings for individual modules:

Sum of individual times         ...        7.788 sec (=   0.130 min)
GTO integral calculation        ...        0.959 sec (=   0.016 min)  12.3 %
SCF iterations                  ...        3.438 sec (=   0.057 min)  44.1 %
SCF Gradient evaluation         ...        1.476 sec (=   0.025 min)  19.0 %
Geometry relaxation             ...        0.027 sec (=   0.000 min)   0.4 %
Analytical frequency calculation...        1.888 sec (=   0.031 min)  24.2 %
                             ****ORCA TERMINATED NORMALLY****
TOTAL RUN TIME: 0 days 0 hours 0 minutes 8 seconds 395 msec
