
                                 *****************
                                 * O   R   C   A *
                                 *****************

                                            #,                                       
                                            ###                                      
                                            ####                                     
                                            #####                                    
                                            ######                                   
                                           ########,                                 
                                     ,,################,,,,,                         
                               ,,#################################,,                 
                          ,,##########################################,,             
                       ,#########################################, ''#####,          
                    ,#############################################,,   '####,        
                  ,##################################################,,,,####,       
                ,###########''''           ''''###############################       
              ,#####''   ,,,,##########,,,,          '''####'''          '####       
            ,##' ,,,,###########################,,,                        '##       
           ' ,,###''''                  '''############,,,                           
         ,,##''                                '''############,,,,        ,,,,,,###''
      ,#''                                            '''#######################'''  
     '                                                          ''''####''''         
             ,#######,   #######,   ,#######,      ##                                
            ,#'     '#,  ##    ##  ,#'     '#,    #''#        ######   ,####,        
            ##       ##  ##   ,#'  ##            #'  '#       #        #'  '#        
            ##       ##  #######   ##           ,######,      #####,   #    #        
            '#,     ,#'  ##    ##  '#,     ,#' ,#      #,         ##   #,  ,#        
             '#######'   ##     ##  '#######'  #'      '#     #####' # '####'        



                  #######################################################
                  #                        -***-                        #
                  #          Department of theory and spectroscopy      #
                  #    Directorship and core code : Frank Neese         #
                  #        Max Planck Institute fuer Kohlenforschung    #
                  #                Kaiser Wilhelm Platz 1               #
                  #                 D-45470 Muelheim/Ruhr               #
                  #                      Germany                        #
                  #                                                     #
                  #                  All rights reserved                #
                  #                        -***-                        #
                  #######################################################


                         Program Version 5.0.1 -  RELEASE  -


 With contributions from (in alphabetic order):
   Daniel Aravena         : Magnetic Suceptibility
   Michael Atanasov       : Ab Initio Ligand Field Theory (pilot matlab implementation)
   Alexander A. Auer      : GIAO ZORA, VPT2 properties, NMR spectrum
   Ute Becker             : Parallelization
   Giovanni Bistoni       : ED, misc. LED, open-shell LED, HFLD
   Martin Brehm           : Molecular dynamics
   Dmytro Bykov           : SCF Hessian
   Vijay G. Chilkuri      : MRCI spin determinant printing, contributions to CSF-ICE
   Dipayan Datta          : RHF DLPNO-CCSD density
   Achintya Kumar Dutta   : EOM-CC, STEOM-CC
   Dmitry Ganyushin       : Spin-Orbit,Spin-Spin,Magnetic field MRCI
   Miquel Garcia          : C-PCM and meta-GGA Hessian, CC/C-PCM, Gaussian charge scheme
   Yang Guo               : DLPNO-NEVPT2, F12-NEVPT2, CIM, IAO-localization
   Andreas Hansen         : Spin unrestricted coupled pair/coupled cluster methods
   Benjamin Helmich-Paris : MC-RPA, TRAH-SCF, COSX integrals
   Lee Huntington         : MR-EOM, pCC
   Robert Izsak           : Overlap fitted RIJCOSX, COSX-SCS-MP3, EOM
   Marcus Kettner         : VPT2
   Christian Kollmar      : KDIIS, OOCD, Brueckner-CCSD(T), CCSD density, CASPT2, CASPT2-K
   Simone Kossmann        : Meta GGA functionals, TD-DFT gradient, OOMP2, MP2 Hessian
   Martin Krupicka        : Initial AUTO-CI
   Lucas Lang             : DCDCAS
   Marvin Lechner         : AUTO-CI (C++ implementation), FIC-MRCC
   Dagmar Lenk            : GEPOL surface, SMD
   Dimitrios Liakos       : Extrapolation schemes; Compound Job, initial MDCI parallelization
   Dimitrios Manganas     : Further ROCIS development; embedding schemes
   Dimitrios Pantazis     : SARC Basis sets
   Anastasios Papadopoulos: AUTO-CI, single reference methods and gradients
   Taras Petrenko         : DFT Hessian,TD-DFT gradient, ASA, ECA, R-Raman, ABS, FL, XAS/XES, NRVS
   Peter Pinski           : DLPNO-MP2, DLPNO-MP2 Gradient
   Christoph Reimann      : Effective Core Potentials
   Marius Retegan         : Local ZFS, SOC
   Christoph Riplinger    : Optimizer, TS searches, QM/MM, DLPNO-CCSD(T), (RO)-DLPNO pert. Triples
   Tobias Risthaus        : Range-separated hybrids, TD-DFT gradient, RPA, STAB
   Michael Roemelt        : Original ROCIS implementation
   Masaaki Saitow         : Open-shell DLPNO-CCSD energy and density
   Barbara Sandhoefer     : DKH picture change effects
   Avijit Sen             : IP-ROCIS
   Kantharuban Sivalingam : CASSCF convergence, NEVPT2, FIC-MRCI
   Bernardo de Souza      : ESD, SOC TD-DFT
   Georgi Stoychev        : AutoAux, RI-MP2 NMR, DLPNO-MP2 response
   Willem Van den Heuvel  : Paramagnetic NMR
   Boris Wezisla          : Elementary symmetry handling
   Frank Wennmohs         : Technical directorship


 We gratefully acknowledge several colleagues who have allowed us to
 interface, adapt or use parts of their codes:
   Stefan Grimme, W. Hujo, H. Kruse, P. Pracht,  : VdW corrections, initial TS optimization,
                  C. Bannwarth, S. Ehlert          DFT functionals, gCP, sTDA/sTD-DF
   Ed Valeev, F. Pavosevic, A. Kumar             : LibInt (2-el integral package), F12 methods
   Garnet Chan, S. Sharma, J. Yang, R. Olivares  : DMRG
   Ulf Ekstrom                                   : XCFun DFT Library
   Mihaly Kallay                                 : mrcc  (arbitrary order and MRCC methods)
   Jiri Pittner, Ondrej Demel                    : Mk-CCSD
   Frank Weinhold                                : gennbo (NPA and NBO analysis)
   Christopher J. Cramer and Donald G. Truhlar   : smd solvation model
   Lars Goerigk                                  : TD-DFT with DH, B97 family of functionals
   V. Asgeirsson, H. Jonsson                     : NEB implementation
   FAccTs GmbH                                   : IRC, NEB, NEB-TS, DLPNO-Multilevel, CI-OPT
                                                   MM, QMMM, 2- and 3-layer-ONIOM, Crystal-QMMM,
                                                   LR-CPCM, SF, NACMEs, symmetry and pop. for TD-DFT,
                                                   nearIR, NL-DFT gradient (VV10), updates on ESD,
                                                   ML-optimized integration grids
   S Lehtola, MJT Oliveira, MAL Marques          : LibXC Library
   Liviu Ungur et al                             : ANISO software


 Your calculation uses the libint2 library for the computation of 2-el integrals
 For citations please refer to: http://libint.valeyev.net

 Your ORCA version has been built with support for libXC version: 5.1.0
 For citations please refer to: https://tddft.org/programs/libxc/

 This ORCA versions uses:
   CBLAS   interface :  Fast vector & matrix operations
   LAPACKE interface :  Fast linear algebra routines
   SCALAPACK package :  Parallel linear algebra routines
   Shared memory     :  Shared parallel matrices
   BLAS/LAPACK       :  OpenBLAS 0.3.15  USE64BITINT DYNAMIC_ARCH NO_AFFINITY Zen SINGLE_THREADED
        Core in use  :  Zen
   Copyright (c) 2011-2014, The OpenBLAS Project




***************************************
The coordinates will be read from file: furan.xyz
***************************************


================================================================================

----- Orbital basis set information -----
Your calculation utilizes the basis: def2-TZVP
   F. Weigend and R. Ahlrichs, Phys. Chem. Chem. Phys. 7, 3297 (2005).

----- AuxJ basis set information -----
Your calculation utilizes the auxiliary basis: def2/J
   F. Weigend, Phys. Chem. Chem. Phys. 8, 1057 (2006).

================================================================================
                                        WARNINGS
                       Please study these warnings very carefully!
================================================================================


WARNING: Geometry Optimization
  ===> : Switching off AutoStart
         For restart on a previous wavefunction, please use MOREAD

INFO   : the flag for use of the SHARK integral package has been found!

================================================================================
                                       INPUT FILE
================================================================================
NAME = furan_OPT.inp
|  1> 
|  2> %pal
|  3>   nprocs 6
|  4> end
|  5> %maxcore 2000
|  6> 
|  7> ! PBE0 def2-TZVP TightOPT Freq
|  8> ! RIJCOSX def2/J
|  9> 
| 10> * xyzfile 0 1 furan.xyz
| 11> 
| 12> 
| 13>                          ****END OF INPUT****
================================================================================

                       *****************************
                       * Geometry Optimization Run *
                       *****************************

Geometry optimization settings:
Update method            Update   .... BFGS
Choice of coordinates    CoordSys .... Z-matrix Internals
Initial Hessian          InHess   .... Almoef's Model

Convergence Tolerances:
Energy Change            TolE     ....  1.0000e-06 Eh
Max. Gradient            TolMAXG  ....  1.0000e-04 Eh/bohr
RMS Gradient             TolRMSG  ....  3.0000e-05 Eh/bohr
Max. Displacement        TolMAXD  ....  1.0000e-03 bohr
RMS Displacement         TolRMSD  ....  6.0000e-04 bohr
Strict Convergence                ....  False
------------------------------------------------------------------------------
                        ORCA OPTIMIZATION COORDINATE SETUP
------------------------------------------------------------------------------

The optimization will be done in new redundant internal coordinates
Making redundant internal coordinates   ...  (new redundants) done
Evaluating the initial hessian          ...  (Almloef) done
Evaluating the coordinates              ...  done
Calculating the B-matrix                .... done
Calculating the G-matrix                .... done
Diagonalizing the G-matrix              .... done
The first mode is                       ....   17
The number of degrees of freedom        ....   21

    -----------------------------------------------------------------
                    Redundant Internal Coordinates


    -----------------------------------------------------------------
         Definition                    Initial Value    Approx d2E/dq
    -----------------------------------------------------------------
      1. B(O   1,C   0)                  1.3551         0.636092   
      2. B(C   2,O   1)                  1.3544         0.637882   
      3. B(C   3,C   0)                  1.3893         0.626364   
      4. B(C   4,C   3)                  1.3855         0.635253   
      5. B(C   4,C   2)                  1.3901         0.624585   
      6. B(H   5,C   0)                  1.0226         0.461264   
      7. B(H   6,C   2)                  1.0236         0.459642   
      8. B(H   7,C   3)                  1.0222         0.462009   
      9. B(H   8,C   4)                  1.0199         0.465945   
     10. A(O   1,C   0,C   3)          109.6358         0.434014   
     11. A(O   1,C   0,H   5)          125.0335         0.367434   
     12. A(C   3,C   0,H   5)          125.3307         0.368766   
     13. A(C   0,O   1,C   2)          107.5056         0.432589   
     14. A(O   1,C   2,C   4)          109.4177         0.434011   
     15. A(O   1,C   2,H   6)          125.1951         0.367389   
     16. A(C   4,C   2,H   6)          125.3872         0.368363   
     17. A(C   0,C   3,H   7)          126.6749         0.368868   
     18. A(C   0,C   3,C   4)          106.5605         0.436772   
     19. A(C   4,C   3,H   7)          126.7646         0.369762   
     20. A(C   3,C   4,H   8)          126.6712         0.370302   
     21. A(C   2,C   4,H   8)          126.4483         0.369226   
     22. A(C   2,C   4,C   3)          106.8805         0.436549   
     23. D(C   2,O   1,C   0,H   5)    180.0000         0.029800   
     24. D(C   2,O   1,C   0,C   3)      0.0000         0.029800   
     25. D(C   4,C   2,O   1,C   0)      0.0000         0.029981   
     26. D(H   6,C   2,O   1,C   0)    180.0000         0.029981   
     27. D(C   4,C   3,C   0,H   5)    180.0000         0.027183   
     28. D(C   4,C   3,C   0,O   1)      0.0000         0.027183   
     29. D(H   7,C   3,C   0,O   1)    180.0000         0.027183   
     30. D(H   7,C   3,C   0,H   5)      0.0000         0.027183   
     31. D(C   2,C   4,C   3,H   7)    180.0000         0.028010   
     32. D(C   2,C   4,C   3,C   0)      0.0000         0.028010   
     33. D(H   8,C   4,C   2,H   6)      0.0000         0.027019   
     34. D(H   8,C   4,C   2,O   1)    180.0000         0.027019   
     35. D(C   3,C   4,C   2,H   6)    180.0000         0.027019   
     36. D(H   8,C   4,C   3,C   0)    180.0000         0.028010   
     37. D(C   3,C   4,C   2,O   1)      0.0000         0.027019   
     38. D(H   8,C   4,C   3,H   7)      0.0000         0.028010   
    -----------------------------------------------------------------

Number of atoms                         .... 9
Number of degrees of freedom            .... 38

         *************************************************************
         *                GEOMETRY OPTIMIZATION CYCLE   1            *
         *************************************************************
---------------------------------
CARTESIAN COORDINATES (ANGSTROEM)
---------------------------------
  C     -0.426390    1.278320   -0.000000
  O     -0.006840   -0.010220    0.000000
  C      1.347460    0.002300    0.000000
  C      0.673300    2.127370   -0.000000
  C      1.797460    1.317540   -0.000000
  H     -1.404320    1.577270    0.000000
  H      1.945110   -0.828660    0.000000
  H      0.655530    3.149380   -0.000000
  H      2.769790    1.625240    0.000000

----------------------------
CARTESIAN COORDINATES (A.U.)
----------------------------
  NO LB      ZA    FRAG     MASS         X           Y           Z
   0 C     6.0000    0    12.011   -0.805760    2.415675   -0.000000
   1 O     8.0000    0    15.999   -0.012926   -0.019313    0.000000
   2 C     6.0000    0    12.011    2.546330    0.004346    0.000000
   3 C     6.0000    0    12.011    1.272353    4.020147   -0.000000
   4 C     6.0000    0    12.011    3.396707    2.489790   -0.000000
   5 H     1.0000    0     1.008   -2.653780    2.980608    0.000000
   6 H     1.0000    0     1.008    3.675725   -1.565940    0.000000
   7 H     1.0000    0     1.008    1.238772    5.951466   -0.000000
   8 H     1.0000    0     1.008    5.234145    3.071259    0.000000

--------------------------------
INTERNAL COORDINATES (ANGSTROEM)
--------------------------------
 C      0   0   0     0.000000000000     0.00000000     0.00000000
 O      1   0   0     1.355122700754     0.00000000     0.00000000
 C      2   1   0     1.354357870136   107.50564159     0.00000000
 C      1   2   3     1.389317817708   109.63575168     0.00000000
 C      4   1   2     1.385481986350   106.56046427     0.00000000
 H      1   2   3     1.022603631619   125.03352551   180.00000000
 H      3   2   1     1.023562428042   125.19509629   180.00000000
 H      4   1   2     1.022164474534   126.67493752   180.00000000
 H      5   4   1     1.019855342144   126.67121468   180.00000085

---------------------------
INTERNAL COORDINATES (A.U.)
---------------------------
 C      0   0   0     0.000000000000     0.00000000     0.00000000
 O      1   0   0     2.560810782286     0.00000000     0.00000000
 C      2   1   0     2.559365461878   107.50564159     0.00000000
 C      1   2   3     2.625430188445   109.63575168     0.00000000
 C      4   1   2     2.618181517682   106.56046427     0.00000000
 H      1   2   3     1.932440807313   125.03352551   180.00000000
 H      3   2   1     1.934252669972   125.19509629   180.00000000
 H      4   1   2     1.931610920693   126.67493752   180.00000000
 H      5   4   1     1.927247292869   126.67121468   180.00000085

---------------------
BASIS SET INFORMATION
---------------------
There are 3 groups of distinct atoms

 Group   1 Type C   : 11s6p2d1f contracted to 5s3p2d1f pattern {62111/411/11/1}
 Group   2 Type O   : 11s6p2d1f contracted to 5s3p2d1f pattern {62111/411/11/1}
 Group   3 Type H   : 5s1p contracted to 3s1p pattern {311/1}

Atom   0C    basis set group =>   1
Atom   1O    basis set group =>   2
Atom   2C    basis set group =>   1
Atom   3C    basis set group =>   1
Atom   4C    basis set group =>   1
Atom   5H    basis set group =>   3
Atom   6H    basis set group =>   3
Atom   7H    basis set group =>   3
Atom   8H    basis set group =>   3
---------------------------------
AUXILIARY/J BASIS SET INFORMATION
---------------------------------
There are 3 groups of distinct atoms

 Group   1 Type C   : 12s5p4d2f1g contracted to 6s4p3d1f1g pattern {711111/2111/211/2/1}
 Group   2 Type O   : 12s5p4d2f1g contracted to 6s4p3d1f1g pattern {711111/2111/211/2/1}
 Group   3 Type H   : 5s2p1d contracted to 3s1p1d pattern {311/2/1}

Atom   0C    basis set group =>   1
Atom   1O    basis set group =>   2
Atom   2C    basis set group =>   1
Atom   3C    basis set group =>   1
Atom   4C    basis set group =>   1
Atom   5H    basis set group =>   3
Atom   6H    basis set group =>   3
Atom   7H    basis set group =>   3
Atom   8H    basis set group =>   3


           ************************************************************
           *        Program running with 6 parallel MPI-processes     *
           *              working on a common directory               *
           ************************************************************
------------------------------------------------------------------------------
                           ORCA GTO INTEGRAL CALCULATION
                           -- RI-GTO INTEGRALS CHOSEN --
------------------------------------------------------------------------------
------------------------------------------------------------------------------
                   ___                                                        
                  /   \      - P O W E R E D   B Y -                         
                 /     \                                                     
                 |  |  |   _    _      __       _____    __    __             
                 |  |  |  | |  | |    /  \     |  _  \  |  |  /  |          
                  \  \/   | |  | |   /    \    | | | |  |  | /  /          
                 / \  \   | |__| |  /  /\  \   | |_| |  |  |/  /          
                |  |  |   |  __  | /  /__\  \  |    /   |      \           
                |  |  |   | |  | | |   __   |  |    \   |  |\   \          
                \     /   | |  | | |  |  |  |  | |\  \  |  | \   \       
                 \___/    |_|  |_| |__|  |__|  |_| \__\ |__|  \__/        
                                                                              
                      - O R C A' S   B I G   F R I E N D -                    
                                      &                                       
                       - I N T E G R A L  F E E D E R -                       
                                                                              
 v1 FN, 2020, v2 2021                                                         
------------------------------------------------------------------------------


Reading SHARK input file furan_OPT.SHARKINP.tmp ... ok
----------------------
SHARK INTEGRAL PACKAGE
----------------------

Number of atoms                             ...      9
Number of basis functions                   ...    179
Number of shells                            ...     71
Maximum angular momentum                    ...      3
Integral batch strategy                     ... SHARK/LIBINT Hybrid
RI-J (if used) integral strategy            ... SPLIT-RIJ (Revised 2003 algorithm where possible)
Printlevel                                  ...      1
Contraction scheme used                     ... SEGMENTED contraction
Coulomb Range Separation                    ... NOT USED
Exchange Range Separation                   ... NOT USED
Finite Nucleus Model                        ... NOT USED
Auxiliary Coulomb fitting basis             ... AVAILABLE
   # of basis functions in Aux-J            ...    289
   # of shells in Aux-J                     ...     95
   Maximum angular momentum in Aux-J        ...      4
Auxiliary J/K fitting basis                 ... NOT available
Auxiliary Correlation fitting basis         ... NOT available
Auxiliary 'external' fitting basis          ... NOT available
Integral threshold                          ...     2.500000e-11
Primitive cut-off                           ...     2.500000e-12
Primitive pair pre-selection threshold      ...     2.500000e-12

Calculating pre-screening integrals         ... done (  0.0 sec) Dimension = 71
Organizing shell pair data                  ... done (  0.0 sec)
Shell pair information
Total number of shell pairs                 ...      2556
Shell pairs after pre-screening             ...      2502
Total number of primitive shell pairs       ...      7872
Primitive shell pairs kept                  ...      6297
          la=0 lb=0:    662 shell pairs
          la=1 lb=0:    692 shell pairs
          la=1 lb=1:    190 shell pairs
          la=2 lb=0:    368 shell pairs
          la=2 lb=1:    190 shell pairs
          la=2 lb=2:     55 shell pairs
          la=3 lb=0:    185 shell pairs
          la=3 lb=1:     95 shell pairs
          la=3 lb=2:     50 shell pairs
          la=3 lb=3:     15 shell pairs

Calculating one electron integrals          ... done (  0.0 sec)
Calculating RI/J V-Matrix + Cholesky decomp.... done (  0.0 sec)
Calculating Nuclear repulsion               ... done (  0.0 sec) ENN=    161.989249246833 Eh

SHARK setup successfully completed in   0.1 seconds

Maximum memory used throughout the entire GTOINT-calculation: 13.8 MB


           ************************************************************
           *        Program running with 6 parallel MPI-processes     *
           *              working on a common directory               *
           ************************************************************
-------------------------------------------------------------------------------
                                 ORCA SCF
-------------------------------------------------------------------------------

------------
SCF SETTINGS
------------
Hamiltonian:
 Density Functional     Method          .... DFT(GTOs)
 Exchange Functional    Exchange        .... PBE
   PBE kappa parameter   XKappa         ....  0.804000
   PBE mue parameter    XMuePBE         ....  0.219520
 Correlation Functional Correlation     .... PBE
   PBE beta parameter  CBetaPBE         ....  0.066725
 LDA part of GGA corr.  LDAOpt          .... PW91-LDA
 Gradients option       PostSCFGGA      .... off
 Hybrid DFT is turned on
   Fraction HF Exchange ScalHFX         ....  0.250000
   Scaling of DF-GGA-X  ScalDFX         ....  0.750000
   Scaling of DF-GGA-C  ScalDFC         ....  1.000000
   Scaling of DF-LDA-C  ScalLDAC        ....  1.000000
   Perturbative correction              ....  0.000000
   Density functional embedding theory  .... OFF
   NL short-range parameter             ....  6.900000
 RI-approximation to the Coulomb term is turned on
   Number of AuxJ basis functions       .... 289
   RIJ-COSX (HFX calculated with COS-X)).... on


General Settings:
 Integral files         IntName         .... furan_OPT
 Hartree-Fock type      HFTyp           .... RHF
 Total Charge           Charge          ....    0
 Multiplicity           Mult            ....    1
 Number of Electrons    NEL             ....   36
 Basis Dimension        Dim             ....  179
 Nuclear Repulsion      ENuc            ....    161.9892492468 Eh

Convergence Acceleration:
 DIIS                   CNVDIIS         .... on
   Start iteration      DIISMaxIt       ....    12
   Startup error        DIISStart       ....  0.200000
   # of expansion vecs  DIISMaxEq       ....     5
   Bias factor          DIISBfac        ....   1.050
   Max. coefficient     DIISMaxC        ....  10.000
 Trust-Rad. Augm. Hess. CNVTRAH         .... auto
   Auto Start mean grad. ratio tolernc. ....  1.125000
   Auto Start start iteration           ....    20
   Auto Start num. interpolation iter.  ....    10
   Max. Number of Micro iterations      ....    16
   Max. Number of Macro iterations      .... Maxiter - #DIIS iter
   Number of Davidson start vectors     ....     2
   Converg. threshold I  (grad. norm)   ....   1.000e-05
   Converg. threshold II (energy diff.) ....   1.000e-08
   Grad. Scal. Fac. for Micro threshold ....   0.100
   Minimum threshold for Micro iter.    ....   0.010
   NR start threshold (gradient norm)   ....   0.001
   Initial trust radius                 ....   0.400
   Minimum AH scaling param. (alpha)    ....   1.000
   Maximum AH scaling param. (alpha)    .... 1000.000
   Orbital update algorithm             .... Taylor
   White noise on init. David. guess    .... on
   Maximum white noise                  ....   0.010
   Quad. conv. algorithm                .... NR
 SOSCF                  CNVSOSCF        .... on
   Start iteration      SOSCFMaxIt      ....   150
   Startup grad/error   SOSCFStart      ....  0.003300
 Level Shifting         CNVShift        .... on
   Level shift para.    LevelShift      ....    0.2500
   Turn off err/grad.   ShiftErr        ....    0.0010
 Zerner damping         CNVZerner       .... off
 Static damping         CNVDamp         .... on
   Fraction old density DampFac         ....    0.7000
   Max. Damping (<1)    DampMax         ....    0.9800
   Min. Damping (>=0)   DampMin         ....    0.0000
   Turn off err/grad.   DampErr         ....    0.1000
 Fernandez-Rico         CNVRico         .... off

SCF Procedure:
 Maximum # iterations   MaxIter         ....   125
 SCF integral mode      SCFMode         .... Direct
   Integral package                     .... SHARK and LIBINT hybrid scheme
 Reset frequency        DirectResetFreq ....    20
 Integral Threshold     Thresh          ....  2.500e-11 Eh
 Primitive CutOff       TCut            ....  2.500e-12 Eh

Convergence Tolerance:
 Convergence Check Mode ConvCheckMode   .... Total+1el-Energy
 Convergence forced     ConvForced      .... 0
 Energy Change          TolE            ....  1.000e-08 Eh
 1-El. energy change                    ....  1.000e-05 Eh
 Orbital Gradient       TolG            ....  1.000e-05
 Orbital Rotation angle TolX            ....  1.000e-05
 DIIS Error             TolErr          ....  5.000e-07


Diagonalization of the overlap matrix:
Smallest eigenvalue                        ... 5.955e-05
Time for diagonalization                   ...    0.003 sec
Threshold for overlap eigenvalues          ... 1.000e-08
Number of eigenvalues below threshold      ... 0
Time for construction of square roots      ...    0.001 sec
Total time needed                          ...    0.005 sec

Time for model grid setup =    0.032 sec

------------------------------
INITIAL GUESS: MODEL POTENTIAL
------------------------------
Loading Hartree-Fock densities                     ... done
Calculating cut-offs                               ... done
Initializing the effective Hamiltonian             ... done
Setting up the integral package (SHARK)            ... done
Starting the Coulomb interaction                   ... done (   0.0 sec)
Reading the grid                                   ... done
Mapping shells                                     ... done
Starting the XC term evaluation                    ... done (   0.0 sec)
  promolecular density results
     # of electrons  =     35.997164391
     EX              =    -29.825112421
     EC              =     -1.195354597
     EX+EC           =    -31.020467018
Transforming the Hamiltonian                       ... done (   0.0 sec)
Diagonalizing the Hamiltonian                      ... done (   0.0 sec)
Back transforming the eigenvectors                 ... done (   0.0 sec)
Now organizing SCF variables                       ... done
                      ------------------
                      INITIAL GUESS DONE (   0.1 sec)
                      ------------------
-------------------
DFT GRID GENERATION
-------------------

General Integration Accuracy     IntAcc      ... 4.388
Radial Grid Type                 RadialGrid  ... OptM3 with GC (2021)
Angular Grid (max. ang.)         AngularGrid ... 4 (Lebedev-302)
Angular grid pruning method      GridPruning ... 4 (adaptive)
Weight generation scheme         WeightScheme... Becke
Basis function cutoff            BFCut       ... 1.0000e-11
Integration weight cutoff        WCut        ... 1.0000e-14
Angular grids for H and He will be reduced by one unit
Partially contracted basis set               ... off
Rotationally invariant grid construction     ... off

Total number of grid points                  ...    43236
Total number of batches                      ...      680
Average number of points per batch           ...       63
Average number of grid points per atom       ...     4804
Time for grid setup =    0.171 sec

--------------------
COSX GRID GENERATION
--------------------

GRIDX 1
-------
General Integration Accuracy     IntAcc      ... 3.816
Radial Grid Type                 RadialGrid  ... OptM3 with GC (2021)
Angular Grid (max. ang.)         AngularGrid ... 1 (Lebedev-50)
Angular grid pruning method      GridPruning ... 4 (adaptive)
Weight generation scheme         WeightScheme... Becke
Basis function cutoff            BFCut       ... 1.0000e-11
Integration weight cutoff        WCut        ... 1.0000e-14
Angular grids for H and He will be reduced by one unit
Partially contracted basis set               ... on
Rotationally invariant grid construction     ... off

Total number of grid points                  ...     5530
Total number of batches                      ...       90
Average number of points per batch           ...       61
Average number of grid points per atom       ...      614
UseSFitting                                  ... on

GRIDX 2
-------
General Integration Accuracy     IntAcc      ... 4.020
Radial Grid Type                 RadialGrid  ... OptM3 with GC (2021)
Angular Grid (max. ang.)         AngularGrid ... 2 (Lebedev-110)
Angular grid pruning method      GridPruning ... 4 (adaptive)
Weight generation scheme         WeightScheme... Becke
Basis function cutoff            BFCut       ... 1.0000e-11
Integration weight cutoff        WCut        ... 1.0000e-14
Angular grids for H and He will be reduced by one unit
Partially contracted basis set               ... on
Rotationally invariant grid construction     ... off

Total number of grid points                  ...    12279
Total number of batches                      ...      197
Average number of points per batch           ...       62
Average number of grid points per atom       ...     1364
UseSFitting                                  ... on

GRIDX 3
-------
General Integration Accuracy     IntAcc      ... 4.338
Radial Grid Type                 RadialGrid  ... OptM3 with GC (2021)
Angular Grid (max. ang.)         AngularGrid ... 3 (Lebedev-194)
Angular grid pruning method      GridPruning ... 4 (adaptive)
Weight generation scheme         WeightScheme... Becke
Basis function cutoff            BFCut       ... 1.0000e-11
Integration weight cutoff        WCut        ... 1.0000e-14
Angular grids for H and He will be reduced by one unit
Partially contracted basis set               ... on
Rotationally invariant grid construction     ... off

Total number of grid points                  ...    27057
Total number of batches                      ...      427
Average number of points per batch           ...       63
Average number of grid points per atom       ...     3006
UseSFitting                                  ... on

Time for X-Grid setup             =    0.208 sec

--------------
SCF ITERATIONS
--------------
ITER       Energy         Delta-E        Max-DP      RMS-DP      [F,P]     Damp
               ***  Starting incremental Fock matrix formation  ***
  0   -229.7103749357   0.000000000000 0.03252336  0.00091815  0.1629866 0.7000
  1   -229.7630800290  -0.052705093234 0.02234911  0.00067208  0.0888208 0.7000
                               ***Turning on DIIS***
  2   -229.7859535954  -0.022873566402 0.03776848  0.00120905  0.0374381 0.0000
  3   -229.8194444947  -0.033490899336 0.01393124  0.00048581  0.0438755 0.0000
  4   -229.8278031025  -0.008358607744 0.00415952  0.00017055  0.0099315 0.0000
                      *** Initiating the SOSCF procedure ***
                           *** Shutting down DIIS ***
                      *** Re-Reading the Fockian *** 
                      *** Removing any level shift *** 
ITER      Energy       Delta-E        Grad      Rot      Max-DP    RMS-DP
  5   -229.82816936  -0.0003662610  0.000979  0.000979  0.001416  0.000057
               *** Restarting incremental Fock matrix formation ***
  6   -229.82821667  -0.0000473091  0.000430  0.000905  0.000954  0.000039
  7   -229.82821538   0.0000012881  0.000644  0.000573  0.000640  0.000011
  8   -229.82821925  -0.0000038631  0.000082  0.000271  0.000121  0.000005
  9   -229.82821915   0.0000000959  0.000131  0.000164  0.000076  0.000002
 10   -229.82821932  -0.0000001707  0.000006  0.000012  0.000010  0.000000
 11   -229.82821933  -0.0000000033  0.000006  0.000006  0.000004  0.000000
                  ***Gradient check signals convergence***
              ***Rediagonalizing the Fockian in SOSCF/NRSCF***

               *****************************************************
               *                     SUCCESS                       *
               *           SCF CONVERGED AFTER  12 CYCLES          *
               *****************************************************

Old exchange energy                            =     -7.610086120 Eh
New exchange energy                            =     -7.610092247 Eh
Exchange energy change after final integration =     -0.000006127 Eh
Total energy after final integration           =   -229.828225450 Eh
Final COS-X integration done in                =     0.906 sec

----------------
TOTAL SCF ENERGY
----------------

Total Energy       :         -229.82822545 Eh           -6253.94396 eV

Components:
Nuclear Repulsion  :          161.98924925 Eh            4407.95157 eV
Electronic Energy  :         -391.81747470 Eh          -10661.89553 eV
One Electron Energy:         -631.47316192 Eh          -17183.25832 eV
Two Electron Energy:          239.65568722 Eh            6521.36279 eV
Max COSX asymmetry :            0.00000121 Eh               0.00003 eV

Virial components:
Potential Energy   :         -458.87655456 Eh          -12486.66586 eV
Kinetic Energy     :          229.04832911 Eh            6232.72190 eV
Virial Ratio       :            2.00340494


DFT components:
N(Alpha)           :       17.999986986588 electrons
N(Beta)            :       17.999986986588 electrons
N(Total)           :       35.999973973176 electrons
E(X)               :      -22.785155474046 Eh       
E(C)               :       -1.201413178460 Eh       
E(XC)              :      -23.986568652506 Eh       
DFET-embed. en.    :        0.000000000000 Eh       

---------------
SCF CONVERGENCE
---------------

  Last Energy change         ...    2.3696e-09  Tolerance :   1.0000e-08
  Last MAX-Density change    ...    1.4433e-15  Tolerance :   1.0000e-07
  Last RMS-Density change    ...    2.2810e-17  Tolerance :   5.0000e-09
  Last Orbital Gradient      ...    4.1595e-07  Tolerance :   1.0000e-05
  Last Orbital Rotation      ...    6.3856e-07  Tolerance :   1.0000e-05

             **** THE GBW FILE WAS UPDATED (furan_OPT.gbw) ****
             **** DENSITY furan_OPT.scfp WAS UPDATED ****
             **** ENERGY FILE WAS UPDATED (furan_OPT.en.tmp) ****
             **** THE GBW FILE WAS UPDATED (furan_OPT.gbw) ****
             **** DENSITY furan_OPT.scfp WAS UPDATED ****
----------------
ORBITAL ENERGIES
----------------

  NO   OCC          E(Eh)            E(eV) 
   0   2.0000     -19.286312      -524.8072 
   1   2.0000     -10.269222      -279.4397 
   2   2.0000     -10.269161      -279.4381 
   3   2.0000     -10.213962      -277.9360 
   4   2.0000     -10.213226      -277.9160 
   5   2.0000      -1.148095       -31.2413 
   6   2.0000      -0.828483       -22.5442 
   7   2.0000      -0.769966       -20.9518 
   8   2.0000      -0.618880       -16.8406 
   9   2.0000      -0.607725       -16.5370 
  10   2.0000      -0.571292       -15.5456 
  11   2.0000      -0.485570       -13.2130 
  12   2.0000      -0.473886       -12.8951 
  13   2.0000      -0.423167       -11.5150 
  14   2.0000      -0.415794       -11.3143 
  15   2.0000      -0.383762       -10.4427 
  16   2.0000      -0.299910        -8.1610 
  17   2.0000      -0.237368        -6.4591 
  18   0.0000       0.001793         0.0488 
  19   0.0000       0.066293         1.8039 
  20   0.0000       0.084511         2.2997 
  21   0.0000       0.097799         2.6612 
  22   0.0000       0.101892         2.7726 
  23   0.0000       0.115294         3.1373 
  24   0.0000       0.123579         3.3628 
  25   0.0000       0.174307         4.7431 
  26   0.0000       0.177385         4.8269 
  27   0.0000       0.214740         5.8434 
  28   0.0000       0.215887         5.8746 
  29   0.0000       0.244288         6.6474 
  30   0.0000       0.264509         7.1977 
  31   0.0000       0.272423         7.4130 
  32   0.0000       0.285267         7.7625 
  33   0.0000       0.291239         7.9250 
  34   0.0000       0.328929         8.9506 
  35   0.0000       0.363982         9.9044 
  36   0.0000       0.365016         9.9326 
  37   0.0000       0.386947        10.5294 
  38   0.0000       0.412127        11.2145 
  39   0.0000       0.417243        11.3537 
  40   0.0000       0.443407        12.0657 
  41   0.0000       0.447406        12.1745 
  42   0.0000       0.460119        12.5205 
  43   0.0000       0.501327        13.6418 
  44   0.0000       0.529184        14.3998 
  45   0.0000       0.541511        14.7353 
  46   0.0000       0.548022        14.9124 
  47   0.0000       0.552800        15.0424 
  48   0.0000       0.587133        15.9767 
  49   0.0000       0.639973        17.4146 
  50   0.0000       0.647761        17.6265 
  51   0.0000       0.728715        19.8293 
  52   0.0000       0.731025        19.8922 
  53   0.0000       0.758291        20.6341 
  54   0.0000       0.801376        21.8066 
  55   0.0000       0.828981        22.5577 
  56   0.0000       0.844151        22.9705 
  57   0.0000       0.901164        24.5219 
  58   0.0000       0.915301        24.9066 
  59   0.0000       0.945118        25.7180 
  60   0.0000       0.958556        26.0836 
  61   0.0000       1.012586        27.5539 
  62   0.0000       1.071322        29.1522 
  63   0.0000       1.090234        29.6668 
  64   0.0000       1.107987        30.1499 
  65   0.0000       1.121181        30.5089 
  66   0.0000       1.151587        31.3363 
  67   0.0000       1.194402        32.5013 
  68   0.0000       1.219581        33.1865 
  69   0.0000       1.245223        33.8842 
  70   0.0000       1.285775        34.9877 
  71   0.0000       1.306324        35.5469 
  72   0.0000       1.360288        37.0153 
  73   0.0000       1.390114        37.8269 
  74   0.0000       1.441921        39.2367 
  75   0.0000       1.491097        40.5748 
  76   0.0000       1.512363        41.1535 
  77   0.0000       1.531118        41.6639 
  78   0.0000       1.545115        42.0447 
  79   0.0000       1.588031        43.2125 
  80   0.0000       1.663876        45.2764 
  81   0.0000       1.746245        47.5177 
  82   0.0000       1.767095        48.0851 
  83   0.0000       1.791170        48.7402 
  84   0.0000       1.843479        50.1636 
  85   0.0000       1.860933        50.6386 
  86   0.0000       1.891054        51.4582 
  87   0.0000       1.939087        52.7652 
  88   0.0000       1.953551        53.1588 
  89   0.0000       2.021340        55.0034 
  90   0.0000       2.032093        55.2961 
  91   0.0000       2.100576        57.1596 
  92   0.0000       2.122385        57.7530 
  93   0.0000       2.137821        58.1731 
  94   0.0000       2.150709        58.5238 
  95   0.0000       2.218448        60.3670 
  96   0.0000       2.277156        61.9646 
  97   0.0000       2.346640        63.8553 
  98   0.0000       2.414778        65.7094 
  99   0.0000       2.433642        66.2228 
 100   0.0000       2.440469        66.4085 
 101   0.0000       2.518978        68.5449 
 102   0.0000       2.532948        68.9250 
 103   0.0000       2.569887        69.9302 
 104   0.0000       2.605456        70.8981 
 105   0.0000       2.627434        71.4961 
 106   0.0000       2.641639        71.8827 
 107   0.0000       2.679500        72.9129 
 108   0.0000       2.703583        73.5682 
 109   0.0000       2.749681        74.8226 
 110   0.0000       2.759267        75.0835 
 111   0.0000       2.814700        76.5919 
 112   0.0000       2.821324        76.7721 
 113   0.0000       2.868163        78.0467 
 114   0.0000       2.869699        78.0885 
 115   0.0000       2.912171        79.2442 
 116   0.0000       2.954744        80.4027 
 117   0.0000       3.011155        81.9377 
 118   0.0000       3.019251        82.1580 
 119   0.0000       3.021211        82.2113 
 120   0.0000       3.065682        83.4215 
 121   0.0000       3.071332        83.5752 
 122   0.0000       3.091890        84.1346 
 123   0.0000       3.127800        85.1118 
 124   0.0000       3.145058        85.5814 
 125   0.0000       3.170947        86.2858 
 126   0.0000       3.173776        86.3628 
 127   0.0000       3.196984        86.9944 
 128   0.0000       3.209461        87.3339 
 129   0.0000       3.290768        89.5463 
 130   0.0000       3.348283        91.1114 
 131   0.0000       3.354023        91.2676 
 132   0.0000       3.380746        91.9948 
 133   0.0000       3.382861        92.0523 
 134   0.0000       3.403803        92.6222 
 135   0.0000       3.493678        95.0678 
 136   0.0000       3.506480        95.4162 
 137   0.0000       3.570192        97.1499 
 138   0.0000       3.579191        97.3947 
 139   0.0000       3.610564        98.2485 
 140   0.0000       3.638668        99.0132 
 141   0.0000       3.667093        99.7867 
 142   0.0000       3.770399       102.5978 
 143   0.0000       4.056838       110.3922 
 144   0.0000       4.158730       113.1648 
 145   0.0000       4.164546       113.3230 
 146   0.0000       4.174211       113.5861 
 147   0.0000       4.177996       113.6890 
 148   0.0000       4.231350       115.1409 
 149   0.0000       4.327037       117.7447 
 150   0.0000       4.351771       118.4177 
 151   0.0000       4.406177       119.8982 
 152   0.0000       4.454950       121.2254 
 153   0.0000       4.478623       121.8695 
 154   0.0000       4.637189       126.1843 
 155   0.0000       4.675328       127.2221 
 156   0.0000       4.683110       127.4339 
 157   0.0000       4.831386       131.4687 
 158   0.0000       4.936453       134.3277 
 159   0.0000       4.957426       134.8984 
 160   0.0000       5.117352       139.2502 
 161   0.0000       5.405897       147.1019 
 162   0.0000       5.467970       148.7910 
 163   0.0000       5.647725       153.6824 
 164   0.0000       5.769108       156.9854 
 165   0.0000       5.777812       157.2223 
 166   0.0000       5.860382       159.4691 
 167   0.0000       6.282249       170.9487 
 168   0.0000       6.482589       176.4002 
 169   0.0000       6.677858       181.7137 
 170   0.0000       6.784212       184.6078 
 171   0.0000       6.804736       185.1663 
 172   0.0000       7.212490       196.2618 
 173   0.0000       7.278256       198.0514 
 174   0.0000      22.240157       605.1854 
 175   0.0000      22.729684       618.5061 
 176   0.0000      22.780473       619.8882 
 177   0.0000      23.103862       628.6881 
 178   0.0000      44.045376      1198.5356 

                    ********************************
                    * MULLIKEN POPULATION ANALYSIS *
                    ********************************

-----------------------
MULLIKEN ATOMIC CHARGES
-----------------------
   0 C :   -0.016031
   1 O :   -0.182639
   2 C :   -0.018229
   3 C :   -0.164860
   4 C :   -0.161677
   5 H :    0.145118
   6 H :    0.145368
   7 H :    0.126631
   8 H :    0.126318
Sum of atomic charges:    0.0000000

--------------------------------
MULLIKEN REDUCED ORBITAL CHARGES
--------------------------------
  0 C s       :     3.170001  s :     3.170001
      pz      :     1.060822  p :     2.720623
      px      :     0.981266
      py      :     0.678535
      dz2     :     0.004809  d :     0.112368
      dxz     :     0.011183
      dyz     :     0.034139
      dx2y2   :     0.038394
      dxy     :     0.023843
      f0      :     0.002161  f :     0.013039
      f+1     :     0.000989
      f-1     :     0.001181
      f+2     :     0.001427
      f-2     :     0.001346
      f+3     :     0.003274
      f-3     :     0.002660
  1 O s       :     3.753472  s :     3.753472
      pz      :     1.610259  p :     4.377283
      px      :     1.323290
      py      :     1.443734
      dz2     :     0.004575  d :     0.049508
      dxz     :     0.010455
      dyz     :     0.008265
      dx2y2   :     0.016952
      dxy     :     0.009260
      f0      :     0.000324  f :     0.002377
      f+1     :     0.000306
      f-1     :     0.000258
      f+2     :     0.000449
      f-2     :     0.000102
      f+3     :     0.000468
      f-3     :     0.000471
  2 C s       :     3.171303  s :     3.171303
      pz      :     1.061278  p :     2.721676
      px      :     0.674137
      py      :     0.986261
      dz2     :     0.004787  d :     0.112201
      dxz     :     0.030572
      dyz     :     0.014673
      dx2y2   :     0.028894
      dxy     :     0.033275
      f0      :     0.002160  f :     0.013048
      f+1     :     0.001299
      f-1     :     0.000871
      f+2     :     0.002713
      f-2     :     0.000063
      f+3     :     0.002546
      f-3     :     0.003397
  3 C s       :     3.159079  s :     3.159079
      pz      :     1.026104  p :     2.916991
      px      :     0.932844
      py      :     0.958043
      dz2     :     0.005606  d :     0.080349
      dxz     :     0.024755
      dyz     :     0.006849
      dx2y2   :     0.026305
      dxy     :     0.016835
      f0      :     0.001713  f :     0.008441
      f+1     :     0.000579
      f-1     :     0.000985
      f+2     :    -0.000004
      f-2     :     0.001644
      f+3     :     0.002320
      f-3     :     0.001204
  4 C s       :     3.156309  s :     3.156309
      pz      :     1.026516  p :     2.916431
      px      :     0.960518
      py      :     0.929397
      dz2     :     0.005652  d :     0.080488
      dxz     :     0.010167
      dyz     :     0.021542
      dx2y2   :     0.025970
      dxy     :     0.017156
      f0      :     0.001716  f :     0.008448
      f+1     :     0.000951
      f-1     :     0.000616
      f+2     :     0.000629
      f-2     :     0.001012
      f+3     :     0.001904
      f-3     :     0.001620
  5 H s       :     0.830839  s :     0.830839
      pz      :     0.006624  p :     0.024043
      px      :     0.013485
      py      :     0.003934
  6 H s       :     0.830610  s :     0.830610
      pz      :     0.006612  p :     0.024022
      px      :     0.006850
      py      :     0.010559
  7 H s       :     0.849115  s :     0.849115
      pz      :     0.005841  p :     0.024253
      px      :     0.004588
      py      :     0.013824
  8 H s       :     0.849354  s :     0.849354
      pz      :     0.005889  p :     0.024328
      px      :     0.013002
      py      :     0.005437


                     *******************************
                     * LOEWDIN POPULATION ANALYSIS *
                     *******************************

----------------------
LOEWDIN ATOMIC CHARGES
----------------------
   0 C :   -0.230583
   1 O :    0.349181
   2 C :   -0.231004
   3 C :   -0.185389
   4 C :   -0.186174
   5 H :    0.116209
   6 H :    0.116537
   7 H :    0.126022
   8 H :    0.125202

-------------------------------
LOEWDIN REDUCED ORBITAL CHARGES
-------------------------------
  0 C s       :     2.784815  s :     2.784815
      pz      :     0.989597  p :     2.871775
      px      :     1.036539
      py      :     0.845639
      dz2     :     0.038932  d :     0.491938
      dxz     :     0.025706
      dyz     :     0.107088
      dx2y2   :     0.188990
      dxy     :     0.131221
      f0      :     0.005540  f :     0.082055
      f+1     :     0.004451
      f-1     :     0.008702
      f+2     :     0.008583
      f-2     :     0.010520
      f+3     :     0.023198
      f-3     :     0.021060
  1 O s       :     3.228872  s :     3.228872
      pz      :     1.475565  p :     4.283054
      px      :     1.360128
      py      :     1.447361
      dz2     :     0.009688  d :     0.130321
      dxz     :     0.026809
      dyz     :     0.017280
      dx2y2   :     0.043180
      dxy     :     0.033365
      f0      :     0.000464  f :     0.008572
      f+1     :     0.000646
      f-1     :     0.000485
      f+2     :     0.002074
      f-2     :     0.000255
      f+3     :     0.001828
      f-3     :     0.002822
  2 C s       :     2.785228  s :     2.785228
      pz      :     0.990045  p :     2.872407
      px      :     0.819607
      py      :     1.062755
      dz2     :     0.038867  d :     0.491191
      dxz     :     0.092324
      dyz     :     0.040361
      dx2y2   :     0.149586
      dxy     :     0.170053
      f0      :     0.005553  f :     0.082177
      f+1     :     0.009134
      f-1     :     0.004022
      f+2     :     0.017664
      f-2     :     0.001489
      f+3     :     0.017974
      f-3     :     0.026341
  3 C s       :     2.758231  s :     2.758231
      pz      :     0.931014  p :     2.988664
      px      :     1.049652
      py      :     1.007998
      dz2     :     0.027697  d :     0.387584
      dxz     :     0.087914
      dyz     :     0.018091
      dx2y2   :     0.147378
      dxy     :     0.106503
      f0      :     0.003190  f :     0.050910
      f+1     :     0.003892
      f-1     :     0.004131
      f+2     :     0.000479
      f-2     :     0.011947
      f+3     :     0.018051
      f-3     :     0.009220
  4 C s       :     2.757860  s :     2.757860
      pz      :     0.931242  p :     2.988674
      px      :     1.009246
      py      :     1.048186
      dz2     :     0.027788  d :     0.388791
      dxz     :     0.028597
      dyz     :     0.077640
      dx2y2   :     0.148917
      dxy     :     0.105850
      f0      :     0.003183  f :     0.050849
      f+1     :     0.004028
      f-1     :     0.003998
      f+2     :     0.004742
      f-2     :     0.007662
      f+3     :     0.015977
      f-3     :     0.011259
  5 H s       :     0.810085  s :     0.810085
      pz      :     0.020647  p :     0.073706
      px      :     0.039651
      py      :     0.013408
  6 H s       :     0.809896  s :     0.809896
      pz      :     0.020584  p :     0.073568
      px      :     0.021720
      py      :     0.031263
  7 H s       :     0.803281  s :     0.803281
      pz      :     0.017985  p :     0.070697
      px      :     0.014203
      py      :     0.038509
  8 H s       :     0.803711  s :     0.803711
      pz      :     0.018164  p :     0.071087
      px      :     0.036452
      py      :     0.016470


                      *****************************
                      * MAYER POPULATION ANALYSIS *
                      *****************************

  NA   - Mulliken gross atomic population
  ZA   - Total nuclear charge
  QA   - Mulliken gross atomic charge
  VA   - Mayer's total valence
  BVA  - Mayer's bonded valence
  FA   - Mayer's free valence

  ATOM       NA         ZA         QA         VA         BVA        FA
  0 C      6.0160     6.0000    -0.0160     3.8772     3.8772    -0.0000
  1 O      8.1826     8.0000    -0.1826     2.3409     2.3409     0.0000
  2 C      6.0182     6.0000    -0.0182     3.8785     3.8785     0.0000
  3 C      6.1649     6.0000    -0.1649     3.9658     3.9658     0.0000
  4 C      6.1617     6.0000    -0.1617     3.9653     3.9653     0.0000
  5 H      0.8549     1.0000     0.1451     0.9791     0.9791    -0.0000
  6 H      0.8546     1.0000     0.1454     0.9792     0.9792    -0.0000
  7 H      0.8734     1.0000     0.1266     0.9721     0.9721     0.0000
  8 H      0.8737     1.0000     0.1263     0.9717     0.9717     0.0000

  Mayer bond orders larger than 0.100000
B(  0-C ,  1-O ) :   1.1252 B(  0-C ,  2-C ) :   0.1199 B(  0-C ,  3-C ) :   1.6163 
B(  0-C ,  5-H ) :   0.9686 B(  1-O ,  2-C ) :   1.1247 B(  2-C ,  4-C ) :   1.6170 
B(  2-C ,  6-H ) :   0.9684 B(  3-C ,  4-C ) :   1.3250 B(  3-C ,  7-H ) :   0.9615 
B(  4-C ,  8-H ) :   0.9615 

-------
TIMINGS
-------

Total SCF time: 0 days 0 hours 0 min 9 sec 

Total time                  ....       9.598 sec
Sum of individual times     ....       9.444 sec  ( 98.4%)

Fock matrix formation       ....       8.681 sec  ( 90.4%)
  Split-RI-J                ....       0.796 sec  (  9.2% of F)
  Chain of spheres X        ....       6.034 sec  ( 69.5% of F)
  XC integration            ....       1.504 sec  ( 17.3% of F)
    Basis function eval.    ....       0.336 sec  ( 22.3% of XC)
    Density eval.           ....       0.310 sec  ( 20.6% of XC)
    XC-Functional eval.     ....       0.048 sec  (  3.2% of XC)
    XC-Potential eval.      ....       0.379 sec  ( 25.2% of XC)
Diagonalization             ....       0.053 sec  (  0.5%)
Density matrix formation    ....       0.008 sec  (  0.1%)
Population analysis         ....       0.012 sec  (  0.1%)
Initial guess               ....       0.068 sec  (  0.7%)
Orbital Transformation      ....       0.000 sec  (  0.0%)
Orbital Orthonormalization  ....       0.000 sec  (  0.0%)
DIIS solution               ....       0.059 sec  (  0.6%)
SOSCF solution              ....       0.152 sec  (  1.6%)
Grid generation             ....       0.411 sec  (  4.3%)

Maximum memory used throughout the entire SCF-calculation: 65.5 MB

-------------------------   --------------------
FINAL SINGLE POINT ENERGY      -229.828225449977
-------------------------   --------------------



           ************************************************************
           *        Program running with 6 parallel MPI-processes     *
           *              working on a common directory               *
           ************************************************************
------------------------------------------------------------------------------
                         ORCA SCF GRADIENT CALCULATION
------------------------------------------------------------------------------

 ... reading COSX grid (gridx3)
Gradient of the Kohn-Sham DFT energy:
Kohn-Sham wavefunction type      ... RKS
Hartree-Fock exchange scaling    ...    0.250
Number of operators              ...    1
Number of atoms                  ...    9
Basis set dimensions             ...  179
Integral neglect threshold       ... 2.5e-11
Integral primitive cutoff        ... 2.5e-12
SHARK Integral package           ... ON

Nuc. rep. gradient       (SHARK) ... done (  0.0 sec)
HCore & Overlap gradient (SHARK) ... done (  0.0 sec)
RI-J gradient            (SHARK) ... done (  0.2 sec)
COSX-gradient                    ... done (  1.1 sec)
Exchange-correlation gradient    ... done

------------------
CARTESIAN GRADIENT
------------------

   1   C   :   -0.077846744   -0.014882599   -0.000000014
   2   O   :    0.000603290   -0.000418966    0.000000028
   3   C   :    0.010343818   -0.079792733   -0.000000010
   4   C   :    0.036189775    0.052290900   -0.000000027
   5   C   :    0.038093245    0.051819334    0.000000013
   6   H   :    0.048839088    0.003617638    0.000000008
   7   H   :   -0.011688696    0.046587879    0.000000003
   8   H   :    0.003615495   -0.047155419   -0.000000000
   9   H   :   -0.048113489   -0.012381195    0.000000004

Difference to translation invariance:
           :    0.0000357809   -0.0003151620    0.0000000055

Difference to rotation invariance:
           :   -0.0000000796   -0.0000000066   -0.0001456262

Norm of the cartesian gradient     ...    0.1742030576
RMS gradient                       ...    0.0335253941
MAX gradient                       ...    0.0797927327

-------
TIMINGS
-------

Total SCF gradient time            ...        1.905 sec

One electron gradient       ....       0.019 sec  (  1.0%)
RI-J Coulomb gradient       ....       0.161 sec  (  8.4%)
COSX gradient               ....       1.053 sec  ( 55.3%)
XC gradient                 ....       0.397 sec  ( 20.9%)

Maximum memory used throughout the entire SCFGRAD-calculation: 39.7 MB
------------------------------------------------------------------------------
                         ORCA GEOMETRY RELAXATION STEP
------------------------------------------------------------------------------

Reading the OPT-File                    .... done
Getting information on internals        .... done
Copying old internal coords+grads       .... done
Making the new internal coordinates     .... (new redundants).... done
Validating the new internal coordinates .... (new redundants).... done
Calculating the B-matrix                .... done
Calculating the G,G- and P matrices     .... done
Transforming gradient to internals      .... done
Projecting the internal gradient        .... done
Number of atoms                         ....   9
Number of internal coordinates          ....  38
Current Energy                          ....  -229.828225450 Eh
Current gradient norm                   ....     0.174203058 Eh/bohr
Maximum allowed component of the step   ....  0.300
Current trust radius                    ....  0.300
Evaluating the initial hessian          ....  (Almloef) done
Projecting the Hessian                  .... done
Forming the augmented Hessian           .... done
Diagonalizing the augmented Hessian     .... done
Last element of RFO vector              ....  0.975609082
Lowest eigenvalues of augmented Hessian:
 -0.024836891  0.027380382  0.027580675  0.027630781  0.027974560
Length of the computed step             ....  0.225003225
The final length of the internal step   ....  0.225003225
Converting the step to cartesian space:
 Initial RMS(Int)=    0.0365003430
Transforming coordinates:
 Iter   0:  RMS(Cart)=    0.0432902704 RMS(Int)=    2.0388613864
 Iter   1:  RMS(Cart)=    0.0012342381 RMS(Int)=    0.0008734481
 Iter   2:  RMS(Cart)=    0.0000664696 RMS(Int)=    0.0000519638
 Iter   3:  RMS(Cart)=    0.0000020089 RMS(Int)=    0.0000015712
 Iter   4:  RMS(Cart)=    0.0000001368 RMS(Int)=    0.0000000885
 Iter   5:  RMS(Cart)=    0.0000000073 RMS(Int)=    0.0000000056
done
Storing new coordinates                 .... done

                                .--------------------.
          ----------------------|Geometry convergence|-------------------------
          Item                value                   Tolerance       Converged
          ---------------------------------------------------------------------
          RMS gradient        0.0180657006            0.0000300000      NO
          MAX gradient        0.0496012227            0.0001000000      NO
          RMS step            0.0365003430            0.0006000000      NO
          MAX step            0.1010657609            0.0010000000      NO
          ........................................................
          Max(Bonds)      0.0535      Max(Angles)    2.73
          Max(Dihed)        0.00      Max(Improp)    0.00
          ---------------------------------------------------------------------

The optimization has not yet converged - more geometry cycles are needed


    ---------------------------------------------------------------------------
                         Redundant Internal Coordinates
                            (Angstroem and degrees)

        Definition                    Value    dE/dq     Step     New-Value
    ----------------------------------------------------------------------------
     1. B(O   1,C   0)                1.3551  0.010992 -0.0093    1.3458   
     2. B(C   2,O   1)                1.3544  0.009688 -0.0082    1.3461   
     3. B(C   3,C   0)                1.3893  0.026599 -0.0214    1.3679   
     4. B(C   4,C   3)                1.3855 -0.025440  0.0210    1.4065   
     5. B(C   4,C   2)                1.3901  0.027578 -0.0223    1.3678   
     6. B(H   5,C   0)                1.0226 -0.045632  0.0497    1.0723   
     7. B(H   6,C   2)                1.0236 -0.044679  0.0488    1.0724   
     8. B(H   7,C   3)                1.0222 -0.047175  0.0513    1.0734   
     9. B(H   8,C   4)                1.0199 -0.049601  0.0535    1.0733   
    10. A(O   1,C   0,C   3)          109.64 -0.002710    0.32    109.96   
    11. A(O   1,C   0,H   5)          125.03  0.018543   -2.67    122.37   
    12. A(C   3,C   0,H   5)          125.33 -0.015833    2.35    127.68   
    13. A(C   0,O   1,C   2)          107.51 -0.002545    0.12    107.62   
    14. A(O   1,C   2,C   4)          109.42 -0.003763    0.46    109.88   
    15. A(O   1,C   2,H   6)          125.20  0.019010   -2.73    122.47   
    16. A(C   4,C   2,H   6)          125.39 -0.015247    2.27    127.66   
    17. A(C   0,C   3,H   7)          126.67  0.000862   -0.22    126.45   
    18. A(C   0,C   3,C   4)          106.56  0.003703   -0.35    106.21   
    19. A(C   4,C   3,H   7)          126.76 -0.004565    0.57    127.33   
    20. A(C   3,C   4,H   8)          126.67 -0.005287    0.66    127.33   
    21. A(C   2,C   4,H   8)          126.45 -0.000027   -0.10    126.34   
    22. A(C   2,C   4,C   3)          106.88  0.005314   -0.56    106.32   
    23. D(C   2,O   1,C   0,H   5)    180.00  0.000000   -0.00    180.00   
    24. D(C   2,O   1,C   0,C   3)      0.00 -0.000000    0.00      0.00   
    25. D(C   4,C   2,O   1,C   0)      0.00  0.000000   -0.00     -0.00   
    26. D(H   6,C   2,O   1,C   0)    180.00  0.000000   -0.00    180.00   
    27. D(C   4,C   3,C   0,H   5)    180.00 -0.000000    0.00    180.00   
    28. D(C   4,C   3,C   0,O   1)      0.00 -0.000000    0.00      0.00   
    29. D(H   7,C   3,C   0,O   1)    180.00  0.000000   -0.00    180.00   
    30. D(H   7,C   3,C   0,H   5)      0.00 -0.000000    0.00      0.00   
    31. D(C   2,C   4,C   3,H   7)    180.00 -0.000000    0.00    180.00   
    32. D(C   2,C   4,C   3,C   0)      0.00  0.000000   -0.00     -0.00   
    33. D(H   8,C   4,C   2,H   6)      0.00 -0.000000    0.00      0.00   
    34. D(H   8,C   4,C   2,O   1)    180.00 -0.000000    0.00    180.00   
    35. D(C   3,C   4,C   2,H   6)    180.00 -0.000000    0.00    180.00   
    36. D(H   8,C   4,C   3,C   0)    180.00  0.000000   -0.00    180.00   
    37. D(C   3,C   4,C   2,O   1)      0.00 -0.000000    0.00      0.00   
    38. D(H   8,C   4,C   3,H   7)      0.00 -0.000000    0.00      0.00   
    ----------------------------------------------------------------------------

         *************************************************************
         *                GEOMETRY OPTIMIZATION CYCLE   2            *
         *************************************************************
---------------------------------
CARTESIAN COORDINATES (ANGSTROEM)
---------------------------------
  C     -0.414223    1.285670    0.000000
  O      0.004242    0.006551   -0.000000
  C      1.350334    0.017955    0.000000
  C      0.662589    2.129203    0.000000
  C      1.804541    1.308144   -0.000000
  H     -1.453509    1.549618   -0.000000
  H      1.933602   -0.881913    0.000000
  H      0.632281    3.202216    0.000000
  H      2.831242    1.621095   -0.000000

----------------------------
CARTESIAN COORDINATES (A.U.)
----------------------------
  NO LB      ZA    FRAG     MASS         X           Y           Z
   0 C     6.0000    0    12.011   -0.782769    2.429564    0.000000
   1 O     8.0000    0    15.999    0.008017    0.012380   -0.000000
   2 C     6.0000    0    12.011    2.551762    0.033931    0.000000
   3 C     6.0000    0    12.011    1.252112    4.023610    0.000000
   4 C     6.0000    0    12.011    3.410089    2.472035   -0.000000
   5 H     1.0000    0     1.008   -2.746733    2.928353   -0.000000
   6 H     1.0000    0     1.008    3.653978   -1.666574    0.000000
   7 H     1.0000    0     1.008    1.194838    6.051312    0.000000
   8 H     1.0000    0     1.008    5.350272    3.063426   -0.000000

--------------------------------
INTERNAL COORDINATES (ANGSTROEM)
--------------------------------
 C      0   0   0     0.000000000000     0.00000000     0.00000000
 O      1   0   0     1.345829966759     0.00000000     0.00000000
 C      2   1   0     1.346140169702   107.63017550     0.00000000
 C      1   2   3     1.367871692473   109.95818432     0.00000000
 C      3   2   1     1.367805681483   109.87987694     0.00000000
 H      1   2   3     1.072279214154   122.36574539   179.99999791
 H      3   2   1     1.072363717937   122.46470764   179.99999638
 H      4   1   2     1.073441322427   126.45582602   179.99999190
 H      5   3   2     1.073337039376   126.34632033   180.00000973

---------------------------
INTERNAL COORDINATES (A.U.)
---------------------------
 C      0   0   0     0.000000000000     0.00000000     0.00000000
 O      1   0   0     2.543250060000     0.00000000     0.00000000
 C      2   1   0     2.543836258607   107.63017550     0.00000000
 C      1   2   3     2.584902885118   109.95818432     0.00000000
 C      3   2   1     2.584778142423   109.87987694     0.00000000
 H      1   2   3     2.026314053848   122.36574539   179.99999791
 H      3   2   1     2.026473742854   122.46470764   179.99999638
 H      4   1   2     2.028510120222   126.45582602   179.99999190
 H      5   3   2     2.028313053815   126.34632033   180.00000973



           ************************************************************
           *        Program running with 6 parallel MPI-processes     *
           *              working on a common directory               *
           ************************************************************
------------------------------------------------------------------------------
                   ___                                                        
                  /   \      - P O W E R E D   B Y -                         
                 /     \                                                     
                 |  |  |   _    _      __       _____    __    __             
                 |  |  |  | |  | |    /  \     |  _  \  |  |  /  |          
                  \  \/   | |  | |   /    \    | | | |  |  | /  /          
                 / \  \   | |__| |  /  /\  \   | |_| |  |  |/  /          
                |  |  |   |  __  | /  /__\  \  |    /   |      \           
                |  |  |   | |  | | |   __   |  |    \   |  |\   \          
                \     /   | |  | | |  |  |  |  | |\  \  |  | \   \       
                 \___/    |_|  |_| |__|  |__|  |_| \__\ |__|  \__/        
                                                                              
                      - O R C A' S   B I G   F R I E N D -                    
                                      &                                       
                       - I N T E G R A L  F E E D E R -                       
                                                                              
 v1 FN, 2020, v2 2021                                                         
------------------------------------------------------------------------------


Reading SHARK input file furan_OPT.SHARKINP.tmp ... ok
----------------------
SHARK INTEGRAL PACKAGE
----------------------

Number of atoms                             ...      9
Number of basis functions                   ...    179
Number of shells                            ...     71
Maximum angular momentum                    ...      3
Integral batch strategy                     ... SHARK/LIBINT Hybrid
RI-J (if used) integral strategy            ... SPLIT-RIJ (Revised 2003 algorithm where possible)
Printlevel                                  ...      1
Contraction scheme used                     ... SEGMENTED contraction
Coulomb Range Separation                    ... NOT USED
Exchange Range Separation                   ... NOT USED
Finite Nucleus Model                        ... NOT USED
Auxiliary Coulomb fitting basis             ... AVAILABLE
   # of basis functions in Aux-J            ...    289
   # of shells in Aux-J                     ...     95
   Maximum angular momentum in Aux-J        ...      4
Auxiliary J/K fitting basis                 ... NOT available
Auxiliary Correlation fitting basis         ... NOT available
Auxiliary 'external' fitting basis          ... NOT available
Integral threshold                          ...     2.500000e-11
Primitive cut-off                           ...     2.500000e-12
Primitive pair pre-selection threshold      ...     2.500000e-12

Calculating pre-screening integrals         ... done (  0.0 sec) Dimension = 71
Organizing shell pair data                  ... done (  0.0 sec)
Shell pair information
Total number of shell pairs                 ...      2556
Shell pairs after pre-screening             ...      2501
Total number of primitive shell pairs       ...      7872
Primitive shell pairs kept                  ...      6277
          la=0 lb=0:    662 shell pairs
          la=1 lb=0:    691 shell pairs
          la=1 lb=1:    190 shell pairs
          la=2 lb=0:    368 shell pairs
          la=2 lb=1:    190 shell pairs
          la=2 lb=2:     55 shell pairs
          la=3 lb=0:    185 shell pairs
          la=3 lb=1:     95 shell pairs
          la=3 lb=2:     50 shell pairs
          la=3 lb=3:     15 shell pairs

Calculating one electron integrals          ... done (  0.0 sec)
Calculating RI/J V-Matrix + Cholesky decomp.... done (  0.0 sec)
Calculating Nuclear repulsion               ... done (  0.0 sec) ENN=    161.861290062777 Eh

SHARK setup successfully completed in   0.1 seconds

Maximum memory used throughout the entire GTOINT-calculation: 13.8 MB


           ************************************************************
           *        Program running with 6 parallel MPI-processes     *
           *              working on a common directory               *
           ************************************************************

Diagonalization of the overlap matrix:
Smallest eigenvalue                        ... 5.471e-05
Time for diagonalization                   ...    0.003 sec
Threshold for overlap eigenvalues          ... 1.000e-08
Number of eigenvalues below threshold      ... 0
Time for construction of square roots      ...    0.001 sec
Total time needed                          ...    0.005 sec

-------------------
DFT GRID GENERATION
-------------------

General Integration Accuracy     IntAcc      ... 4.388
Radial Grid Type                 RadialGrid  ... OptM3 with GC (2021)
Angular Grid (max. ang.)         AngularGrid ... 4 (Lebedev-302)
Angular grid pruning method      GridPruning ... 4 (adaptive)
Weight generation scheme         WeightScheme... Becke
Basis function cutoff            BFCut       ... 1.0000e-11
Integration weight cutoff        WCut        ... 1.0000e-14
Angular grids for H and He will be reduced by one unit
Partially contracted basis set               ... off
Rotationally invariant grid construction     ... off

Total number of grid points                  ...    43252
Total number of batches                      ...      680
Average number of points per batch           ...       63
Average number of grid points per atom       ...     4806
Time for grid setup =    0.259 sec

--------------------
COSX GRID GENERATION
--------------------

GRIDX 1
-------
General Integration Accuracy     IntAcc      ... 3.816
Radial Grid Type                 RadialGrid  ... OptM3 with GC (2021)
Angular Grid (max. ang.)         AngularGrid ... 1 (Lebedev-50)
Angular grid pruning method      GridPruning ... 4 (adaptive)
Weight generation scheme         WeightScheme... Becke
Basis function cutoff            BFCut       ... 1.0000e-11
Integration weight cutoff        WCut        ... 1.0000e-14
Angular grids for H and He will be reduced by one unit
Partially contracted basis set               ... on
Rotationally invariant grid construction     ... off

Total number of grid points                  ...     5530
Total number of batches                      ...       90
Average number of points per batch           ...       61
Average number of grid points per atom       ...      614
UseSFitting                                  ... on

GRIDX 2
-------
General Integration Accuracy     IntAcc      ... 4.020
Radial Grid Type                 RadialGrid  ... OptM3 with GC (2021)
Angular Grid (max. ang.)         AngularGrid ... 2 (Lebedev-110)
Angular grid pruning method      GridPruning ... 4 (adaptive)
Weight generation scheme         WeightScheme... Becke
Basis function cutoff            BFCut       ... 1.0000e-11
Integration weight cutoff        WCut        ... 1.0000e-14
Angular grids for H and He will be reduced by one unit
Partially contracted basis set               ... on
Rotationally invariant grid construction     ... off

Total number of grid points                  ...    12281
Total number of batches                      ...      196
Average number of points per batch           ...       62
Average number of grid points per atom       ...     1365
UseSFitting                                  ... on

GRIDX 3
-------
General Integration Accuracy     IntAcc      ... 4.338
Radial Grid Type                 RadialGrid  ... OptM3 with GC (2021)
Angular Grid (max. ang.)         AngularGrid ... 3 (Lebedev-194)
Angular grid pruning method      GridPruning ... 4 (adaptive)
Weight generation scheme         WeightScheme... Becke
Basis function cutoff            BFCut       ... 1.0000e-11
Integration weight cutoff        WCut        ... 1.0000e-14
Angular grids for H and He will be reduced by one unit
Partially contracted basis set               ... on
Rotationally invariant grid construction     ... off

Total number of grid points                  ...    27080
Total number of batches                      ...      427
Average number of points per batch           ...       63
Average number of grid points per atom       ...     3009
UseSFitting                                  ... on

Time for X-Grid setup             =    0.362 sec

--------------
SCF ITERATIONS
--------------
ITER       Energy         Delta-E        Max-DP      RMS-DP      [F,P]     Damp
               ***  Starting incremental Fock matrix formation  ***
  0   -229.8401374442   0.000000000000 0.00247271  0.00010462  0.0209074 0.7000
                      *** Initiating the SOSCF procedure ***
                      *** Re-Reading the Fockian *** 
                      *** Removing any level shift *** 
ITER      Energy       Delta-E        Grad      Rot      Max-DP    RMS-DP
  1   -229.84088298  -0.0007455398  0.001517  0.001517  0.006742  0.000292
               *** Restarting incremental Fock matrix formation ***
  2   -229.84262882  -0.0017458364  0.001841  0.005959  0.002640  0.000112
  3   -229.84261791   0.0000109136  0.003119  0.004221  0.002267  0.000054
  4   -229.84268883  -0.0000709222  0.000404  0.000396  0.000657  0.000027
  5   -229.84269140  -0.0000025661  0.000225  0.000137  0.000197  0.000008
  6   -229.84269231  -0.0000009103  0.000050  0.000095  0.000083  0.000003
  7   -229.84269233  -0.0000000228  0.000036  0.000041  0.000044  0.000001
  8   -229.84269235  -0.0000000249  0.000004  0.000017  0.000010  0.000000
  9   -229.84269235   0.0000000022  0.000007  0.000011  0.000006  0.000000
                  ***Gradient check signals convergence***
              ***Rediagonalizing the Fockian in SOSCF/NRSCF***

               *****************************************************
               *                     SUCCESS                       *
               *           SCF CONVERGED AFTER  10 CYCLES          *
               *****************************************************

Old exchange energy                            =     -7.596874126 Eh
New exchange energy                            =     -7.596878072 Eh
Exchange energy change after final integration =     -0.000003946 Eh
Total energy after final integration           =   -229.842696299 Eh
Final COS-X integration done in                =     0.863 sec
Total Energy       :         -229.84269630 Eh           -6254.33773 eV
  Last Energy change         ...   -1.7758e-09  Tolerance :   1.0000e-08
  Last MAX-Density change    ...    5.5511e-16  Tolerance :   1.0000e-07
             **** THE GBW FILE WAS UPDATED (furan_OPT.gbw) ****
             **** DENSITY furan_OPT.scfp WAS UPDATED ****
             **** ENERGY FILE WAS UPDATED (furan_OPT.en.tmp) ****
             **** THE GBW FILE WAS UPDATED (furan_OPT.gbw) ****
             **** DENSITY furan_OPT.scfp WAS UPDATED ****
Total SCF time: 0 days 0 hours 0 min 8 sec 

Maximum memory used throughout the entire SCF-calculation: 65.7 MB

-------------------------   --------------------
FINAL SINGLE POINT ENERGY      -229.842696298674
-------------------------   --------------------



           ************************************************************
           *        Program running with 6 parallel MPI-processes     *
           *              working on a common directory               *
           ************************************************************
------------------------------------------------------------------------------
                         ORCA SCF GRADIENT CALCULATION
------------------------------------------------------------------------------

 ... reading COSX grid (gridx3)
Gradient of the Kohn-Sham DFT energy:
Kohn-Sham wavefunction type      ... RKS
Hartree-Fock exchange scaling    ...    0.250
Number of operators              ...    1
Number of atoms                  ...    9
Basis set dimensions             ...  179
[...]

Writing the Hessian file to the disk             ... done


Maximum memory used throughout the entire SCFHESS-calculation: 110.8 MB

-----------------------
VIBRATIONAL FREQUENCIES
-----------------------

Scaling factor for frequencies =  1.000000000  (already applied!)

   0:         0.00 cm**-1
   1:         0.00 cm**-1
   2:         0.00 cm**-1
   3:         0.00 cm**-1
   4:         0.00 cm**-1
   5:         0.00 cm**-1
   6:       618.81 cm**-1
   7:       631.68 cm**-1
   8:       745.46 cm**-1
   9:       765.18 cm**-1
  10:       854.80 cm**-1
  11:       880.47 cm**-1
  12:       890.44 cm**-1
  13:       893.62 cm**-1
  14:      1025.42 cm**-1
  15:      1072.19 cm**-1
  16:      1112.17 cm**-1
  17:      1176.64 cm**-1
  18:      1234.27 cm**-1
  19:      1289.88 cm**-1
  20:      1432.51 cm**-1
  21:      1533.31 cm**-1
  22:      1612.87 cm**-1
  23:      3264.41 cm**-1
  24:      3274.78 cm**-1
  25:      3293.23 cm**-1
  26:      3300.51 cm**-1


------------
NORMAL MODES
------------

These modes are the Cartesian displacements weighted by the diagonal matrix
M(i,i)=1/sqrt(m[i]) where m[i] is the mass of the displaced atom
Thus, these vectors are normalized but *not* orthogonal

                  0          1          2          3          4          5    
      0       0.000000   0.000000   0.000000   0.000000   0.000000   0.000000
      1       0.000000   0.000000   0.000000   0.000000   0.000000   0.000000
      2       0.000000   0.000000   0.000000   0.000000   0.000000   0.000000
      3       0.000000   0.000000   0.000000   0.000000   0.000000   0.000000
      4       0.000000   0.000000   0.000000   0.000000   0.000000   0.000000
      5       0.000000   0.000000   0.000000   0.000000   0.000000   0.000000
      6       0.000000   0.000000   0.000000   0.000000   0.000000   0.000000
      7       0.000000   0.000000   0.000000   0.000000   0.000000   0.000000
      8       0.000000   0.000000   0.000000   0.000000   0.000000   0.000000
      9       0.000000   0.000000   0.000000   0.000000   0.000000   0.000000
     10       0.000000   0.000000   0.000000   0.000000   0.000000   0.000000
     11       0.000000   0.000000   0.000000   0.000000   0.000000   0.000000
     12       0.000000   0.000000   0.000000   0.000000   0.000000   0.000000
     13       0.000000   0.000000   0.000000   0.000000   0.000000   0.000000
     14       0.000000   0.000000   0.000000   0.000000   0.000000   0.000000
     15       0.000000   0.000000   0.000000   0.000000   0.000000   0.000000
     16       0.000000   0.000000   0.000000   0.000000   0.000000   0.000000
     17       0.000000   0.000000   0.000000   0.000000   0.000000   0.000000
     18       0.000000   0.000000   0.000000   0.000000   0.000000   0.000000
     19       0.000000   0.000000   0.000000   0.000000   0.000000   0.000000
     20       0.000000   0.000000   0.000000   0.000000   0.000000   0.000000
     21       0.000000   0.000000   0.000000   0.000000   0.000000   0.000000
     22       0.000000   0.000000   0.000000   0.000000   0.000000   0.000000
     23       0.000000   0.000000   0.000000   0.000000   0.000000   0.000000
     24       0.000000   0.000000   0.000000   0.000000   0.000000   0.000000
     25       0.000000   0.000000   0.000000   0.000000   0.000000   0.000000
     26       0.000000   0.000000   0.000000   0.000000   0.000000   0.000000
                  6          7          8          9         10         11    
      0       0.000000   0.000001  -0.000000  -0.000001   0.000001  -0.000001
      1       0.000000  -0.000000  -0.000000   0.000000   0.000000   0.000000
      2      -0.147123  -0.210570  -0.116230  -0.085431  -0.083673   0.047959
      3      -0.000000  -0.000000   0.000000   0.000000   0.000000   0.000001
      4      -0.000000   0.000000   0.000001  -0.000000  -0.000000   0.000002
      5       0.001473   0.262304   0.000297   0.062172  -0.001800  -0.000063
      6       0.000000   0.000000  -0.000000  -0.000000  -0.000000   0.000001
      7       0.000001  -0.000001  -0.000000   0.000000  -0.000001  -0.000001
      8       0.144739  -0.212436   0.115556  -0.086421  -0.082977  -0.048795
      9       0.000000  -0.000000  -0.000000   0.000000  -0.000000  -0.000001
     10      -0.000001   0.000000   0.000000  -0.000001   0.000001  -0.000000
     11       0.256124   0.093490  -0.024278  -0.037838   0.082536  -0.109369
     12      -0.000001  -0.000000   0.000000   0.000001  -0.000001  -0.000000
     13      -0.000000   0.000000  -0.000000   0.000000  -0.000000  -0.000001
     14      -0.255023   0.096608   0.023924  -0.037773   0.081285   0.110491
     15       0.000001   0.000001  -0.000001  -0.000001  -0.000000  -0.000001
     16       0.000001  -0.000000  -0.000001  -0.000001  -0.000001  -0.000002
     17      -0.452346  -0.636867   0.618718   0.424023   0.510540  -0.275381
     18       0.000000   0.000000  -0.000001  -0.000000   0.000001  -0.000001
     19       0.000001  -0.000001  -0.000001   0.000001   0.000000  -0.000002
     20       0.445233  -0.641923  -0.616209   0.429523   0.506342   0.280284
     21       0.000001  -0.000001   0.000000   0.000001  -0.000001   0.000004
     22      -0.000001   0.000000  -0.000000  -0.000001   0.000002  -0.000001
     23       0.459900  -0.057867   0.326120   0.553775  -0.480979   0.635379
     24      -0.000001  -0.000000  -0.000000   0.000002  -0.000002  -0.000003
     25       0.000000   0.000000   0.000000  -0.000000  -0.000001   0.000003
     26      -0.460880  -0.051398  -0.321086   0.554578  -0.473621  -0.642689
                 12         13         14         15         16         17    
      0       0.212714   0.239978   0.023552   0.112194   0.133093  -0.077459
      1      -0.072307   0.048929  -0.049034  -0.032714  -0.170359   0.015376
      2       0.000001   0.000001   0.000000   0.000000   0.000000  -0.000000
      3      -0.207676   0.097597   0.056455  -0.073753   0.051489  -0.070470
      4      -0.287743  -0.072989   0.078266   0.052781   0.071213  -0.097676
      5      -0.000000  -0.000000  -0.000000   0.000000  -0.000000  -0.000000
      6      -0.136499   0.028236  -0.054313   0.068142  -0.204256   0.039742
      7       0.180783  -0.240505   0.006746  -0.096400   0.070797  -0.068424
      8      -0.000001   0.000000  -0.000000   0.000000  -0.000000   0.000000
      9       0.103200  -0.037016  -0.067640  -0.024132   0.100274  -0.030616
     10       0.102514   0.394210   0.056517  -0.019038  -0.043293   0.185474
     11      -0.000002  -0.000001   0.000000  -0.000000  -0.000000   0.000001
     12       0.068191  -0.384484   0.075275   0.010774  -0.072852   0.185402
     13       0.131502  -0.089080  -0.046072   0.028412   0.081517   0.030231
     14       0.000002  -0.000001  -0.000000  -0.000000   0.000000  -0.000001
     15       0.281424   0.204815  -0.001173   0.170844   0.091187  -0.176287
     16       0.353287  -0.235141  -0.223109   0.332406  -0.560157  -0.559946
     17      -0.000003  -0.000002  -0.000002   0.000001  -0.000001  -0.000001
     18       0.241485   0.291539  -0.211495  -0.257726  -0.564892  -0.473432
     19       0.380378  -0.113562  -0.072413  -0.268142  -0.095978  -0.345798
     20       0.000002  -0.000002   0.000001   0.000001   0.000001   0.000000
     21      -0.391575   0.122667  -0.658202  -0.584462   0.328310   0.245132
     22       0.090862   0.405116   0.042384  -0.040269  -0.046419   0.217524
     23       0.000015   0.000010   0.000002   0.000002  -0.000000  -0.000000
     24       0.214501  -0.341598   0.250379  -0.147697  -0.150637   0.128139
     25      -0.338485  -0.251002  -0.609676   0.565046   0.303130   0.300356
     26      -0.000015   0.000012  -0.000001   0.000001   0.000000   0.000000
                 18         19         20         21         22         23    
      0      -0.060491   0.002405   0.107372  -0.177161   0.190767  -0.020139
      1       0.188534  -0.086295  -0.091731  -0.229246   0.194291   0.003378
      2      -0.000000  -0.000000   0.000000  -0.000000   0.000001  -0.000000
      3       0.241966   0.006170   0.029829   0.052852  -0.005546  -0.001037
      4      -0.174549  -0.004364   0.041795   0.073857   0.003923   0.000721
      5       0.000000   0.000000  -0.000000  -0.000000   0.000000  -0.000000
      6      -0.196702   0.082510  -0.121154  -0.160359  -0.123008  -0.010494
      7      -0.003631   0.025423   0.072215  -0.241123  -0.242919   0.019367
      8      -0.000000  -0.000000  -0.000000   0.000000   0.000001  -0.000000
      9       0.001714  -0.071390  -0.259512   0.131554  -0.253861  -0.000020
     10      -0.009985   0.011127   0.078619   0.129257  -0.179617  -0.054913
     11      -0.000000   0.000000   0.000000   0.000001  -0.000001  -0.000000
     12       0.011030  -0.033423   0.157494   0.080450   0.088975   0.055425
     13       0.001287   0.063969  -0.220593   0.166036   0.298172   0.018488
     14      -0.000000   0.000000  -0.000001  -0.000001  -0.000001  -0.000000
     15      -0.000736   0.095108   0.194190  -0.092978   0.174336   0.253358
     16       0.568796   0.547526   0.370015   0.585522  -0.319160  -0.038833
     17      -0.000000   0.000001  -0.000000  -0.000001   0.000000   0.000000
     18      -0.535575  -0.488334   0.289325   0.584486   0.357732   0.126734
     19      -0.180772  -0.265001   0.302456   0.098997  -0.063492  -0.244959
     20      -0.000001   0.000001  -0.000000   0.000001   0.000000   0.000000
     21      -0.307262   0.421610   0.467102   0.017086   0.393292  -0.017007
     22      -0.014022   0.025207   0.110535   0.161877  -0.204918   0.632364
     23      -0.000001  -0.000000  -0.000000   0.000000  -0.000001   0.000001
     24      -0.084142   0.110780  -0.044245   0.148139   0.320004  -0.641809
     25       0.296843  -0.407945   0.477875   0.067496  -0.307912  -0.197003
     26      -0.000001  -0.000000   0.000000  -0.000000  -0.000001   0.000001
                 24         25         26    
      0      -0.029935  -0.057765   0.059779
      1       0.006480   0.003771  -0.005938
      2      -0.000000  -0.000000   0.000000
      3       0.000285   0.000281   0.000542
      4       0.000465  -0.000167   0.000771
      5      -0.000000   0.000000  -0.000000
      6       0.015102  -0.023551  -0.023331
      7      -0.025164   0.056864   0.051320
      8       0.000000  -0.000000  -0.000000
      9       0.003417   0.004928  -0.001271
     10      -0.056413   0.024854  -0.036556
     11      -0.000000   0.000000  -0.000000
     12      -0.051218  -0.024110  -0.032546
     13      -0.013666  -0.013401  -0.011982
     14       0.000000   0.000000   0.000000
     15       0.360600   0.627657  -0.622482
     16      -0.054315  -0.088384   0.086968
     17       0.000000   0.000001  -0.000001
     18      -0.159341   0.301498   0.263305
     19       0.309992  -0.600587  -0.525896
     20      -0.000000   0.000001   0.000001
     21      -0.021747   0.003250  -0.008971
     22       0.626849  -0.251211   0.362802
     23       0.000001  -0.000000   0.000000
     24       0.562291   0.260649   0.328207
     25       0.167764   0.083853   0.101502
     26      -0.000001  -0.000000  -0.000001


-----------
IR SPECTRUM
-----------

 Mode   freq       eps      Int      T**2         TX        TY        TZ
       cm**-1   L/(mol*cm) km/mol    a.u.
----------------------------------------------------------------------------
  6:    618.81   0.000000    0.00  0.000000  (-0.000001 -0.000001 -0.000344)
  7:    631.68   0.004901   24.77  0.002421  ( 0.000000  0.000000 -0.049207)
  8:    745.46   0.000000    0.00  0.000000  ( 0.000001  0.000002  0.000369)
  9:    765.18   0.021652  109.42  0.008830  ( 0.000000  0.000000  0.093971)
 10:    854.80   0.000026    0.13  0.000009  ( 0.000000  0.000000  0.003053)
 11:    880.47   0.000000    0.00  0.000000  ( 0.000000  0.000000 -0.000087)
 12:    890.44   0.002788   14.09  0.000977  ( 0.018273  0.025358 -0.000000)
 13:    893.62   0.000114    0.58  0.000040  (-0.005037  0.003822  0.000000)
 14:   1025.42   0.007999   40.42  0.002434  (-0.028805 -0.040058 -0.000000)
 15:   1072.19   0.000673    3.40  0.000196  (-0.011325  0.008224  0.000000)
 16:   1112.17   0.002930   14.81  0.000822  (-0.016847 -0.023202 -0.000000)
 17:   1176.64   0.000164    0.83  0.000043  ( 0.003874  0.005326  0.000000)
 18:   1234.27   0.003602   18.20  0.000911  (-0.024411  0.017743 -0.000000)
 19:   1289.88   0.000090    0.45  0.000022  ( 0.003786 -0.002729  0.000000)
 20:   1432.51   0.000525    2.65  0.000114  ( 0.006252  0.008680 -0.000000)
 21:   1533.31   0.004002   20.22  0.000814  (-0.016645 -0.023182 -0.000000)
 22:   1612.87   0.000053    0.27  0.000010  ( 0.002594 -0.001857  0.000000)
 23:   3264.41   0.000366    1.85  0.000035  ( 0.004809 -0.003448  0.000000)
 24:   3274.78   0.000005    0.02  0.000000  (-0.000255 -0.000615 -0.000000)
 25:   3293.23   0.000039    0.20  0.000004  (-0.001581  0.001089  0.000000)
 26:   3300.51   0.000002    0.01  0.000000  (-0.000134 -0.000380 -0.000000)

* The epsilon (eps) is given for a Dirac delta lineshape.
** The dipole moment derivative (T) already includes vibrational overlap.

The first frequency considered to be a vibration is 6
The total number of vibrations considered is 21


--------------------------
THERMOCHEMISTRY AT 298.15K
--------------------------

Temperature         ... 298.15 K
Pressure            ... 1.00 atm
Total Mass          ... 68.07 AMU

Throughout the following assumptions are being made:
  (1) The electronic state is orbitally nondegenerate
  (2) There are no thermally accessible electronically excited states
  (3) Hindered rotations indicated by low frequency modes are not
      treated as such but are treated as vibrations and this may
      cause some error
  (4) All equations used are the standard statistical mechanics
      equations for an ideal gas
  (5) All vibrations are strictly harmonic

freq.     618.81  E(vib)   ...       0.09 
freq.     631.68  E(vib)   ...       0.09 
freq.     745.46  E(vib)   ...       0.06 
freq.     765.18  E(vib)   ...       0.06 
freq.     854.80  E(vib)   ...       0.04 
freq.     880.47  E(vib)   ...       0.04 
freq.     890.44  E(vib)   ...       0.04 
freq.     893.62  E(vib)   ...       0.03 
freq.    1025.42  E(vib)   ...       0.02 
freq.    1072.19  E(vib)   ...       0.02 
freq.    1112.17  E(vib)   ...       0.01 
freq.    1176.64  E(vib)   ...       0.01 
freq.    1234.27  E(vib)   ...       0.01 
freq.    1289.88  E(vib)   ...       0.01 
freq.    1432.51  E(vib)   ...       0.00 
freq.    1533.31  E(vib)   ...       0.00 
freq.    1612.87  E(vib)   ...       0.00 
freq.    3264.41  E(vib)   ...       0.00 
freq.    3274.78  E(vib)   ...       0.00 
freq.    3293.23  E(vib)   ...       0.00 
freq.    3300.51  E(vib)   ...       0.00 

------------
INNER ENERGY
------------

The inner energy is: U= E(el) + E(ZPE) + E(vib) + E(rot) + E(trans)
    E(el)   - is the total energy from the electronic structure calculation
              = E(kin-el) + E(nuc-el) + E(el-el) + E(nuc-nuc)
    E(ZPE)  - the the zero temperature vibrational energy from the frequency calculation
    E(vib)  - the the finite temperature correction to E(ZPE) due to population
              of excited vibrational states
    E(rot)  - is the rotational thermal energy
    E(trans)- is the translational thermal energy

Summary of contributions to the inner energy U:
Electronic energy                ...   -229.84589667 Eh
Zero point energy                ...      0.07040139 Eh      44.18 kcal/mol
Thermal vibrational correction   ...      0.00085493 Eh       0.54 kcal/mol
Thermal rotational correction    ...      0.00141627 Eh       0.89 kcal/mol
Thermal translational correction ...      0.00141627 Eh       0.89 kcal/mol
-----------------------------------------------------------------------
Total thermal energy                   -229.77180780 Eh


Summary of corrections to the electronic energy:
(perhaps to be used in another calculation)
Total thermal correction                  0.00368748 Eh       2.31 kcal/mol
Non-thermal (ZPE) correction              0.07040139 Eh      44.18 kcal/mol
-----------------------------------------------------------------------
Total correction                          0.07408887 Eh      46.49 kcal/mol


--------
ENTHALPY
--------

The enthalpy is H = U + kB*T
                kB is Boltzmann's constant
Total free energy                 ...   -229.77180780 Eh 
Thermal Enthalpy correction       ...      0.00094421 Eh       0.59 kcal/mol
-----------------------------------------------------------------------
Total Enthalpy                    ...   -229.77086359 Eh


Note: Rotational entropy computed according to Herzberg 
Infrared and Raman Spectra, Chapter V,1, Van Nostrand Reinhold, 1945 
Point Group:  Cs, Symmetry Number:   1  
Rotational constants in cm-1:     0.319544     0.312682     0.158038 

Vibrational entropy computed according to the QRRHO of S. Grimme
Chem.Eur.J. 2012 18 9955


-------
ENTROPY
-------

The entropy contributions are T*S = T*(S(el)+S(vib)+S(rot)+S(trans))
     S(el)   - electronic entropy
     S(vib)  - vibrational entropy
     S(rot)  - rotational entropy
     S(trans)- translational entropy
The entropies will be listed as multiplied by the temperature to get
units of energy

Electronic entropy                ...      0.00000000 Eh      0.00 kcal/mol
Vibrational entropy               ...      0.00108119 Eh      0.68 kcal/mol
Rotational entropy                ...      0.01146921 Eh      7.20 kcal/mol
Translational entropy             ...      0.01832660 Eh     11.50 kcal/mol
-----------------------------------------------------------------------
Final entropy term                ...      0.03087700 Eh     19.38 kcal/mol

In case the symmetry of your molecule has not been determined correctly
or in case you have a reason to use a different symmetry number we print 
out the resulting rotational entropy values for sn=1,12 :
 --------------------------------------------------------
|  sn= 1 | S(rot)=       0.01146921 Eh      7.20 kcal/mol|
|  sn= 2 | S(rot)=       0.01081475 Eh      6.79 kcal/mol|
|  sn= 3 | S(rot)=       0.01043192 Eh      6.55 kcal/mol|
|  sn= 4 | S(rot)=       0.01016029 Eh      6.38 kcal/mol|
|  sn= 5 | S(rot)=       0.00994961 Eh      6.24 kcal/mol|
|  sn= 6 | S(rot)=       0.00977746 Eh      6.14 kcal/mol|
|  sn= 7 | S(rot)=       0.00963192 Eh      6.04 kcal/mol|
|  sn= 8 | S(rot)=       0.00950584 Eh      5.96 kcal/mol|
|  sn= 9 | S(rot)=       0.00939463 Eh      5.90 kcal/mol|
|  sn=10 | S(rot)=       0.00929515 Eh      5.83 kcal/mol|
|  sn=11 | S(rot)=       0.00920516 Eh      5.78 kcal/mol|
|  sn=12 | S(rot)=       0.00912300 Eh      5.72 kcal/mol|
 --------------------------------------------------------


-------------------
GIBBS FREE ENERGY
-------------------

The Gibbs free energy is G = H - T*S

Total enthalpy                    ...   -229.77086359 Eh 
Total entropy correction          ...     -0.03087700 Eh    -19.38 kcal/mol
-----------------------------------------------------------------------
Final Gibbs free energy         ...   -229.80174059 Eh

For completeness - the Gibbs free energy minus the electronic energy
G-E(el)                           ...      0.04415608 Eh     27.71 kcal/mol


Timings for individual modules:

Sum of individual times         ...      144.822 sec (=   2.414 min)
GTO integral calculation        ...        2.319 sec (=   0.039 min)   1.6 %
SCF iterations                  ...       65.173 sec (=   1.086 min)  45.0 %
SCF Gradient evaluation         ...       18.754 sec (=   0.313 min)  12.9 %
Geometry relaxation             ...        0.112 sec (=   0.002 min)   0.1 %
Analytical frequency calculation...       58.464 sec (=   0.974 min)  40.4 %
                             ****ORCA TERMINATED NORMALLY****
TOTAL RUN TIME: 0 days 0 hours 2 minutes 26 seconds 39 msec
