
                                 *****************
                                 * O   R   C   A *
                                 *****************

                                            #,                                       
                                            ###                                      
                                            ####                                     
                                            #####                                    
                                            ######                                   
                                           ########,                                 
                                     ,,################,,,,,                         
                               ,,#################################,,                 
                          ,,##########################################,,             
                       ,#########################################, ''#####,          
                    ,#############################################,,   '####,        
                  ,##################################################,,,,####,       
                ,###########''''           ''''###############################       
              ,#####''   ,,,,##########,,,,          '''####'''          '####       
            ,##' ,,,,###########################,,,                        '##       
           ' ,,###''''                  '''############,,,                           
         ,,##''                                '''############,,,,        ,,,,,,###''
      ,#''                                            '''#######################'''  
     '                                                          ''''####''''         
             ,#######,   #######,   ,#######,      ##                                
            ,#'     '#,  ##    ##  ,#'     '#,    #''#        ######   ,####,        
            ##       ##  ##   ,#'  ##            #'  '#       #        #'  '#        
            ##       ##  #######   ##           ,######,      #####,   #    #        
            '#,     ,#'  ##    ##  '#,     ,#' ,#      #,         ##   #,  ,#        
             '#######'   ##     ##  '#######'  #'      '#     #####' # '####'        



                  #######################################################
                  #                        -***-                        #
                  #          Department of theory and spectroscopy      #
                  #    Directorship and core code : Frank Neese         #
                  #        Max Planck Institute fuer Kohlenforschung    #
                  #                Kaiser Wilhelm Platz 1               #
                  #                 D-45470 Muelheim/Ruhr               #
                  #                      Germany                        #
                  #                                                     #
                  #                  All rights reserved                #
                  #                        -***-                        #
                  #######################################################


                         Program Version 5.0.1 -  RELEASE  -


 With contributions from (in alphabetic order):
   Daniel Aravena         : Magnetic Suceptibility
   Michael Atanasov       : Ab Initio Ligand Field Theory (pilot matlab implementation)
   Alexander A. Auer      : GIAO ZORA, VPT2 properties, NMR spectrum
   Ute Becker             : Parallelization
   Giovanni Bistoni       : ED, misc. LED, open-shell LED, HFLD
   Martin Brehm           : Molecular dynamics
   Dmytro Bykov           : SCF Hessian
   Vijay G. Chilkuri      : MRCI spin determinant printing, contributions to CSF-ICE
   Dipayan Datta          : RHF DLPNO-CCSD density
   Achintya Kumar Dutta   : EOM-CC, STEOM-CC
   Dmitry Ganyushin       : Spin-Orbit,Spin-Spin,Magnetic field MRCI
   Miquel Garcia          : C-PCM and meta-GGA Hessian, CC/C-PCM, Gaussian charge scheme
   Yang Guo               : DLPNO-NEVPT2, F12-NEVPT2, CIM, IAO-localization
   Andreas Hansen         : Spin unrestricted coupled pair/coupled cluster methods
   Benjamin Helmich-Paris : MC-RPA, TRAH-SCF, COSX integrals
   Lee Huntington         : MR-EOM, pCC
   Robert Izsak           : Overlap fitted RIJCOSX, COSX-SCS-MP3, EOM
   Marcus Kettner         : VPT2
   Christian Kollmar      : KDIIS, OOCD, Brueckner-CCSD(T), CCSD density, CASPT2, CASPT2-K
   Simone Kossmann        : Meta GGA functionals, TD-DFT gradient, OOMP2, MP2 Hessian
   Martin Krupicka        : Initial AUTO-CI
   Lucas Lang             : DCDCAS
   Marvin Lechner         : AUTO-CI (C++ implementation), FIC-MRCC
   Dagmar Lenk            : GEPOL surface, SMD
   Dimitrios Liakos       : Extrapolation schemes; Compound Job, initial MDCI parallelization
   Dimitrios Manganas     : Further ROCIS development; embedding schemes
   Dimitrios Pantazis     : SARC Basis sets
   Anastasios Papadopoulos: AUTO-CI, single reference methods and gradients
   Taras Petrenko         : DFT Hessian,TD-DFT gradient, ASA, ECA, R-Raman, ABS, FL, XAS/XES, NRVS
   Peter Pinski           : DLPNO-MP2, DLPNO-MP2 Gradient
   Christoph Reimann      : Effective Core Potentials
   Marius Retegan         : Local ZFS, SOC
   Christoph Riplinger    : Optimizer, TS searches, QM/MM, DLPNO-CCSD(T), (RO)-DLPNO pert. Triples
   Tobias Risthaus        : Range-separated hybrids, TD-DFT gradient, RPA, STAB
   Michael Roemelt        : Original ROCIS implementation
   Masaaki Saitow         : Open-shell DLPNO-CCSD energy and density
   Barbara Sandhoefer     : DKH picture change effects
   Avijit Sen             : IP-ROCIS
   Kantharuban Sivalingam : CASSCF convergence, NEVPT2, FIC-MRCI
   Bernardo de Souza      : ESD, SOC TD-DFT
   Georgi Stoychev        : AutoAux, RI-MP2 NMR, DLPNO-MP2 response
   Willem Van den Heuvel  : Paramagnetic NMR
   Boris Wezisla          : Elementary symmetry handling
   Frank Wennmohs         : Technical directorship


 We gratefully acknowledge several colleagues who have allowed us to
 interface, adapt or use parts of their codes:
   Stefan Grimme, W. Hujo, H. Kruse, P. Pracht,  : VdW corrections, initial TS optimization,
                  C. Bannwarth, S. Ehlert          DFT functionals, gCP, sTDA/sTD-DF
   Ed Valeev, F. Pavosevic, A. Kumar             : LibInt (2-el integral package), F12 methods
   Garnet Chan, S. Sharma, J. Yang, R. Olivares  : DMRG
   Ulf Ekstrom                                   : XCFun DFT Library
   Mihaly Kallay                                 : mrcc  (arbitrary order and MRCC methods)
   Jiri Pittner, Ondrej Demel                    : Mk-CCSD
   Frank Weinhold                                : gennbo (NPA and NBO analysis)
   Christopher J. Cramer and Donald G. Truhlar   : smd solvation model
   Lars Goerigk                                  : TD-DFT with DH, B97 family of functionals
   V. Asgeirsson, H. Jonsson                     : NEB implementation
   FAccTs GmbH                                   : IRC, NEB, NEB-TS, DLPNO-Multilevel, CI-OPT
                                                   MM, QMMM, 2- and 3-layer-ONIOM, Crystal-QMMM,
                                                   LR-CPCM, SF, NACMEs, symmetry and pop. for TD-DFT,
                                                   nearIR, NL-DFT gradient (VV10), updates on ESD,
                                                   ML-optimized integration grids
   S Lehtola, MJT Oliveira, MAL Marques          : LibXC Library
   Liviu Ungur et al                             : ANISO software


 Your calculation uses the libint2 library for the computation of 2-el integrals
 For citations please refer to: http://libint.valeyev.net

 Your ORCA version has been built with support for libXC version: 5.1.0
 For citations please refer to: https://tddft.org/programs/libxc/

 This ORCA versions uses:
   CBLAS   interface :  Fast vector & matrix operations
   LAPACKE interface :  Fast linear algebra routines
   SCALAPACK package :  Parallel linear algebra routines
   Shared memory     :  Shared parallel matrices
   BLAS/LAPACK       :  OpenBLAS 0.3.15  USE64BITINT DYNAMIC_ARCH NO_AFFINITY Zen SINGLE_THREADED
        Core in use  :  Zen
   Copyright (c) 2011-2014, The OpenBLAS Project




***************************************
The coordinates will be read from file: methanol.xyz
***************************************


================================================================================

----- Orbital basis set information -----
Your calculation utilizes the basis: aug-cc-pVTZ 
    H, B-Ne : Obtained from the ccRepo (grant-hill.group.shef.ac.uk/ccrepo) Feb. 2017
              R. A. Kendall, T. H. Dunning, Jr., R. J. Harrison, J. Chem. Phys. 96, 6796 (1992)
         He : Obtained from the ccRepo (grant-hill.group.shef.ac.uk/ccrepo) Feb. 2017
              D. E. Woon, T. H. Dunning, Jr., J. Chem. Phys. 100, 2975 (1994)
  Li-Be, Na : Obtained from the ccRepo (grant-hill.group.shef.ac.uk/ccrepo) Feb. 2017
              B. P. Prascher, D. E. Woon, K. A. Peterson, T. H. Dunning, Jr., A. K. Wilson, Theor. Chem. Acc. 128, 69 (2011)
         Mg : Obtained from the Peterson Research Group Website (tyr0.chem.wsu.edu/~kipeters) Feb. 2017
              B. P. Prascher, D. E. Woon, K. A. Peterson, T. H. Dunning, Jr., A. K. Wilson, Theor. Chem. Acc. 128, 69 (2011)
      Al-Ar : Obtained from the ccRepo (grant-hill.group.shef.ac.uk/ccrepo) Feb. 2017
              D. E. Woon, T. H. Dunning, Jr., J. Chem. Phys. 98, 1358 (1993)
      Sc-Zn : Obtained from the ccRepo (grant-hill.group.shef.ac.uk/ccrepo) Feb. 2017
              N. B. Balabanov, K. A. Peterson, J. Chem. Phys. 123, 064107 (2005)
              N. B. Balabanov, K. A. Peterson, J. Chem. Phys. 125, 074110 (2006)
      Ga-Kr : Obtained from the ccRepo (grant-hill.group.shef.ac.uk/ccrepo) Feb. 2017
              A. K. Wilson, D. E. Woon, K. A. Peterson, T. H. Dunning, Jr., J. Chem. Phys. 110, 7667 (1999)
     Ag, Au : Obtained from the Peterson Research Group Website (tyr0.chem.wsu.edu/~kipeters) Feb. 2017
              K. A. Peterson, C. Puzzarini, Theor. Chem. Acc. 114, 283 (2005)

----- AuxJ basis set information -----
Your calculation utilizes the auxiliary basis: def2/J
   F. Weigend, Phys. Chem. Chem. Phys. 8, 1057 (2006).

================================================================================
                                        WARNINGS
                       Please study these warnings very carefully!
================================================================================



WARNING: Found flag for RIJCOSX approximation but no HF exchange needed!
  ===> : RIJCOSX  will be disabled and Split-RI-J is turned on

INFO   : the flag for use of the SHARK integral package has been found!

================================================================================
                                       INPUT FILE
================================================================================
NAME = methanol_PBE.inp
|  1> 
|  2> %pal
|  3>   nprocs 6
|  4> end
|  5> %maxcore 2000
|  6> 
|  7> ! PBE aug-cc-pVTZ VeryTightSCF
|  8> ! RIJCOSX def2/J
|  9> 
| 10> * xyzfile 0 1 methanol.xyz
| 11> 
| 12> 
| 13>                          ****END OF INPUT****
================================================================================

                       ****************************
                       * Single Point Calculation *
                       ****************************

---------------------------------
CARTESIAN COORDINATES (ANGSTROEM)
---------------------------------
  O      1.428104   -0.010026    0.000000
  C      0.013173    0.020514    0.000000
  H      1.737386    0.895544   -0.000000
  H     -0.328469   -1.014055    0.000000
  H     -0.386767    0.515986    0.893450
  H     -0.386767    0.515986   -0.893450

----------------------------
CARTESIAN COORDINATES (A.U.)
----------------------------
  NO LB      ZA    FRAG     MASS         X           Y           Z
   0 O     8.0000    0    15.999    2.698726   -0.018946    0.000000
   1 C     6.0000    0    12.011    0.024893    0.038766    0.000000
   2 H     1.0000    0     1.008    3.283184    1.692333   -0.000000
   3 H     1.0000    0     1.008   -0.620716   -1.916287    0.000000
   4 H     1.0000    0     1.008   -0.730884    0.975073    1.688377
   5 H     1.0000    0     1.008   -0.730884    0.975073   -1.688376

--------------------------------
INTERNAL COORDINATES (ANGSTROEM)
--------------------------------
 O      0   0   0     0.000000000000     0.00000000     0.00000000
 C      1   0   0     1.415260759077     0.00000000     0.00000000
 H      1   2   0     0.956928218792   107.62025935     0.00000000
 H      2   1   3     1.089519368815   107.03808690   179.99999759
 H      2   1   3     1.097131906280   111.97442192   298.58030408
 H      2   1   3     1.097131894380   111.97441882    61.41968554

---------------------------
INTERNAL COORDINATES (A.U.)
---------------------------
 O      0   0   0     0.000000000000     0.00000000     0.00000000
 C      1   0   0     2.674455242740     0.00000000     0.00000000
 H      1   2   0     1.808332263338   107.62025935     0.00000000
 H      2   1   3     2.058893224663   107.03808690   179.99999759
 H      2   1   3     2.073278835656   111.97442192   298.58030408
 H      2   1   3     2.073278813169   111.97441882    61.41968554

---------------------
BASIS SET INFORMATION
---------------------
There are 3 groups of distinct atoms

 Group   1 Type O   : 19s6p3d2f contracted to 5s4p3d2f pattern {88111/3111/111/11}
 Group   2 Type C   : 19s6p3d2f contracted to 5s4p3d2f pattern {88111/3111/111/11}
 Group   3 Type H   : 6s3p2d contracted to 4s3p2d pattern {3111/111/11}

Atom   0O    basis set group =>   1
Atom   1C    basis set group =>   2
Atom   2H    basis set group =>   3
Atom   3H    basis set group =>   3
Atom   4H    basis set group =>   3
Atom   5H    basis set group =>   3
---------------------------------
AUXILIARY/J BASIS SET INFORMATION
---------------------------------
There are 3 groups of distinct atoms

 Group   1 Type O   : 12s5p4d2f1g contracted to 6s4p3d1f1g pattern {711111/2111/211/2/1}
 Group   2 Type C   : 12s5p4d2f1g contracted to 6s4p3d1f1g pattern {711111/2111/211/2/1}
 Group   3 Type H   : 5s2p1d contracted to 3s1p1d pattern {311/2/1}

Atom   0O    basis set group =>   1
Atom   1C    basis set group =>   2
Atom   2H    basis set group =>   3
Atom   3H    basis set group =>   3
Atom   4H    basis set group =>   3
Atom   5H    basis set group =>   3


           ************************************************************
           *        Program running with 6 parallel MPI-processes     *
           *              working on a common directory               *
           ************************************************************
------------------------------------------------------------------------------
                           ORCA GTO INTEGRAL CALCULATION
                           -- RI-GTO INTEGRALS CHOSEN --
------------------------------------------------------------------------------
------------------------------------------------------------------------------
                   ___                                                        
                  /   \      - P O W E R E D   B Y -                         
                 /     \                                                     
                 |  |  |   _    _      __       _____    __    __             
                 |  |  |  | |  | |    /  \     |  _  \  |  |  /  |          
                  \  \/   | |  | |   /    \    | | | |  |  | /  /          
                 / \  \   | |__| |  /  /\  \   | |_| |  |  |/  /          
                |  |  |   |  __  | /  /__\  \  |    /   |      \           
                |  |  |   | |  | | |   __   |  |    \   |  |\   \          
                \     /   | |  | | |  |  |  |  | |\  \  |  | \   \       
                 \___/    |_|  |_| |__|  |__|  |_| \__\ |__|  \__/        
                                                                              
                      - O R C A' S   B I G   F R I E N D -                    
                                      &                                       
                       - I N T E G R A L  F E E D E R -                       
                                                                              
 v1 FN, 2020, v2 2021                                                         
------------------------------------------------------------------------------


Reading SHARK input file methanol_PBE.SHARKINP.tmp ... ok
----------------------
SHARK INTEGRAL PACKAGE
----------------------

Number of atoms                             ...      6
Number of basis functions                   ...    184
Number of shells                            ...     64
Maximum angular momentum                    ...      3
Integral batch strategy                     ... SHARK/LIBINT Hybrid
RI-J (if used) integral strategy            ... SPLIT-RIJ (Revised 2003 algorithm where possible)
Printlevel                                  ...      1
Contraction scheme used                     ... SEGMENTED contraction
Coulomb Range Separation                    ... NOT USED
Exchange Range Separation                   ... NOT USED
Finite Nucleus Model                        ... NOT USED
Auxiliary Coulomb fitting basis             ... AVAILABLE
   # of basis functions in Aux-J            ...    142
   # of shells in Aux-J                     ...     50
   Maximum angular momentum in Aux-J        ...      4
Auxiliary J/K fitting basis                 ... NOT available
Auxiliary Correlation fitting basis         ... NOT available
Auxiliary 'external' fitting basis          ... NOT available
Integral threshold                          ...     1.000000e-12
Primitive cut-off                           ...     1.000000e-14
Primitive pair pre-selection threshold      ...     1.000000e-14

Calculating pre-screening integrals         ... done (  0.1 sec) Dimension = 64
Organizing shell pair data                  ... done (  0.1 sec)
Shell pair information
Total number of shell pairs                 ...      2080
Shell pairs after pre-screening             ...      2080
Total number of primitive shell pairs       ...      5590
Primitive shell pairs kept                  ...      5196
          la=0 lb=0:    351 shell pairs
          la=1 lb=0:    520 shell pairs
          la=1 lb=1:    210 shell pairs
          la=2 lb=0:    364 shell pairs
          la=2 lb=1:    280 shell pairs
          la=2 lb=2:    105 shell pairs
          la=3 lb=0:    104 shell pairs
          la=3 lb=1:     80 shell pairs
          la=3 lb=2:     56 shell pairs
          la=3 lb=3:     10 shell pairs

Calculating one electron integrals          ... done (  0.0 sec)
Calculating RI/J V-Matrix + Cholesky decomp.... done (  0.4 sec)
Calculating Nuclear repulsion               ... done (  0.0 sec) ENN=     40.393388314316 Eh

SHARK setup successfully completed in   0.9 seconds

Maximum memory used throughout the entire GTOINT-calculation: 17.3 MB


           ************************************************************
           *        Program running with 6 parallel MPI-processes     *
           *              working on a common directory               *
           ************************************************************
-------------------------------------------------------------------------------
                                 ORCA SCF
-------------------------------------------------------------------------------

------------
SCF SETTINGS
------------
Hamiltonian:
 Density Functional     Method          .... DFT(GTOs)
 Exchange Functional    Exchange        .... PBE
   PBE kappa parameter   XKappa         ....  0.804000
   PBE mue parameter    XMuePBE         ....  0.219520
 Correlation Functional Correlation     .... PBE
   PBE beta parameter  CBetaPBE         ....  0.066725
 LDA part of GGA corr.  LDAOpt          .... PW91-LDA
 Gradients option       PostSCFGGA      .... off
   Density functional embedding theory  .... OFF
   NL short-range parameter             ....  6.400000
 RI-approximation to the Coulomb term is turned on
   Number of AuxJ basis functions       .... 142


General Settings:
 Integral files         IntName         .... methanol_PBE
 Hartree-Fock type      HFTyp           .... RHF
 Total Charge           Charge          ....    0
 Multiplicity           Mult            ....    1
 Number of Electrons    NEL             ....   18
 Basis Dimension        Dim             ....  184
 Nuclear Repulsion      ENuc            ....     40.3933883143 Eh

Convergence Acceleration:
 DIIS                   CNVDIIS         .... on
   Start iteration      DIISMaxIt       ....    12
   Startup error        DIISStart       ....  0.200000
   # of expansion vecs  DIISMaxEq       ....     5
   Bias factor          DIISBfac        ....   1.050
   Max. coefficient     DIISMaxC        ....  10.000
 Trust-Rad. Augm. Hess. CNVTRAH         .... auto
   Auto Start mean grad. ratio tolernc. ....  1.125000
   Auto Start start iteration           ....    20
   Auto Start num. interpolation iter.  ....    10
   Max. Number of Micro iterations      ....    16
   Max. Number of Macro iterations      .... Maxiter - #DIIS iter
   Number of Davidson start vectors     ....     2
   Converg. threshold I  (grad. norm)   ....   2.000e-06
   Converg. threshold II (energy diff.) ....   1.000e-09
   Grad. Scal. Fac. for Micro threshold ....   0.100
   Minimum threshold for Micro iter.    ....   0.010
   NR start threshold (gradient norm)   ....   0.001
   Initial trust radius                 ....   0.400
   Minimum AH scaling param. (alpha)    ....   1.000
   Maximum AH scaling param. (alpha)    .... 1000.000
   Orbital update algorithm             .... Taylor
   White noise on init. David. guess    .... on
   Maximum white noise                  ....   0.010
   Quad. conv. algorithm                .... NR
 SOSCF                  CNVSOSCF        .... on
   Start iteration      SOSCFMaxIt      ....   150
   Startup grad/error   SOSCFStart      ....  0.003300
 Level Shifting         CNVShift        .... on
   Level shift para.    LevelShift      ....    0.2500
   Turn off err/grad.   ShiftErr        ....    0.0010
 Zerner damping         CNVZerner       .... off
 Static damping         CNVDamp         .... on
   Fraction old density DampFac         ....    0.7000
   Max. Damping (<1)    DampMax         ....    0.9800
   Min. Damping (>=0)   DampMin         ....    0.0000
   Turn off err/grad.   DampErr         ....    0.1000
 Fernandez-Rico         CNVRico         .... off

SCF Procedure:
 Maximum # iterations   MaxIter         ....   125
 SCF integral mode      SCFMode         .... Direct
   Integral package                     .... SHARK and LIBINT hybrid scheme
 Reset frequency        DirectResetFreq ....    20
 Integral Threshold     Thresh          ....  1.000e-12 Eh
 Primitive CutOff       TCut            ....  1.000e-14 Eh

Convergence Tolerance:
 Convergence Check Mode ConvCheckMode   .... Total+1el-Energy
 Convergence forced     ConvForced      .... 0
 Energy Change          TolE            ....  1.000e-09 Eh
 1-El. energy change                    ....  1.000e-06 Eh
 Orbital Gradient       TolG            ....  2.000e-06
 Orbital Rotation angle TolX            ....  2.000e-06
 DIIS Error             TolErr          ....  1.000e-08


Diagonalization of the overlap matrix:
Smallest eigenvalue                        ... 6.294e-05
Time for diagonalization                   ...    0.040 sec
Threshold for overlap eigenvalues          ... 1.000e-08
Number of eigenvalues below threshold      ... 0
Time for construction of square roots      ...    0.166 sec
Total time needed                          ...    0.354 sec

Time for model grid setup =    0.309 sec

------------------------------
INITIAL GUESS: MODEL POTENTIAL
------------------------------
Loading Hartree-Fock densities                     ... done
Calculating cut-offs                               ... done
Initializing the effective Hamiltonian             ... done
Setting up the integral package (SHARK)            ... done
Starting the Coulomb interaction                   ... done (   0.5 sec)
Reading the grid                                   ... done
Mapping shells                                     ... done
Starting the XC term evaluation                    ... done (   0.1 sec)
  promolecular density results
     # of electrons  =     17.997603909
     EX              =    -14.429072777
     EC              =     -0.575004625
     EX+EC           =    -15.004077403
Transforming the Hamiltonian                       ... done (   0.7 sec)
Diagonalizing the Hamiltonian                      ... done (   0.2 sec)
Back transforming the eigenvectors                 ... done (   0.0 sec)
Now organizing SCF variables                       ... done
                      ------------------
                      INITIAL GUESS DONE (   2.0 sec)
                      ------------------
-------------------
DFT GRID GENERATION
-------------------

General Integration Accuracy     IntAcc      ... 4.388
Radial Grid Type                 RadialGrid  ... OptM3 with GC (2021)
Angular Grid (max. ang.)         AngularGrid ... 4 (Lebedev-302)
Angular grid pruning method      GridPruning ... 4 (adaptive)
Weight generation scheme         WeightScheme... Becke
Basis function cutoff            BFCut       ... 1.0000e-12
Integration weight cutoff        WCut        ... 1.0000e-14
Angular grids for H and He will be reduced by one unit
Partially contracted basis set               ... off
Rotationally invariant grid construction     ... off

Total number of grid points                  ...    26794
Total number of batches                      ...      421
Average number of points per batch           ...       63
Average number of grid points per atom       ...     4466
Time for grid setup =    0.568 sec

--------------
SCF ITERATIONS
--------------
ITER       Energy         Delta-E        Max-DP      RMS-DP      [F,P]     Damp
               ***  Starting incremental Fock matrix formation  ***
  0   -115.5424044102   0.000000000000 0.04295018  0.00100691  0.2704709 0.7000
  1   -115.5873940663  -0.044989656073 0.01984409  0.00058646  0.0866378 0.7000
                               ***Turning on DIIS***
  2   -115.6002749411  -0.012880874771 0.02223557  0.00069421  0.0186268 0.0000
  3   -115.6256454790  -0.025370537967 0.01280004  0.00041675  0.0442516 0.0000
  4   -115.6299988436  -0.004353364571 0.00710177  0.00013453  0.0187536 0.0000
                      *** Initiating the SOSCF procedure ***
                           *** Shutting down DIIS ***
                      *** Re-Reading the Fockian *** 
                      *** Removing any level shift *** 
ITER      Energy       Delta-E        Grad      Rot      Max-DP    RMS-DP
  5   -115.63046243  -0.0004635893  0.000674  0.000674  0.001409  0.000043
               *** Restarting incremental Fock matrix formation ***
  6   -115.63048524  -0.0000228036  0.000214  0.000351  0.001649  0.000040
  7   -115.63048487   0.0000003627  0.000347  0.000370  0.000391  0.000010
  8   -115.63048665  -0.0000017789  0.000086  0.000232  0.000347  0.000010
  9   -115.63048674  -0.0000000826  0.000027  0.000047  0.000051  0.000002
 10   -115.63048675  -0.0000000154  0.000019  0.000020  0.000063  0.000002
 11   -115.63048676  -0.0000000054  0.000007  0.000012  0.000026  0.000001
 12   -115.63048676  -0.0000000012  0.000001  0.000001  0.000001  0.000000
                  ***Gradient check signals convergence***
              ***Rediagonalizing the Fockian in SOSCF/NRSCF***

               *****************************************************
               *                     SUCCESS                       *
               *           SCF CONVERGED AFTER  13 CYCLES          *
               *****************************************************


----------------
TOTAL SCF ENERGY
----------------

Total Energy       :         -115.63048676 Eh           -3146.46551 eV

Components:
Nuclear Repulsion  :           40.39338831 Eh            1099.15998 eV
Electronic Energy  :         -156.02387507 Eh           -4245.62548 eV
One Electron Energy:         -237.07623741 Eh           -6451.17239 eV
Two Electron Energy:           81.05236233 Eh            2205.54691 eV

Virial components:
Potential Energy   :         -230.61163258 Eh           -6275.26155 eV
Kinetic Energy     :          114.98114582 Eh            3128.79604 eV
Virial Ratio       :            2.00564737


DFT components:
N(Alpha)           :        9.000027528705 electrons
N(Beta)            :        9.000027528705 electrons
N(Total)           :       18.000055057410 electrons
E(X)               :      -14.772769302267 Eh       
E(C)               :       -0.581162514289 Eh       
E(XC)              :      -15.353931816556 Eh       
DFET-embed. en.    :        0.000000000000 Eh       

---------------
SCF CONVERGENCE
---------------

  Last Energy change         ...   -2.2609e-11  Tolerance :   1.0000e-09
  Last MAX-Density change    ...    1.3368e-06  Tolerance :   1.0000e-08
  Last RMS-Density change    ...    3.4750e-08  Tolerance :   1.0000e-09
  Last Orbital Gradient      ...    3.1428e-07  Tolerance :   2.0000e-06
  Last Orbital Rotation      ...    5.8589e-07  Tolerance :   2.0000e-06

             **** THE GBW FILE WAS UPDATED (methanol_PBE.gbw) ****
             **** DENSITY methanol_PBE.scfp WAS UPDATED ****
             **** ENERGY FILE WAS UPDATED (methanol_PBE.en.tmp) ****
             **** THE GBW FILE WAS UPDATED (methanol_PBE.gbw) ****
             **** DENSITY methanol_PBE.scfp WAS UPDATED ****
----------------
ORBITAL ENERGIES
----------------

  NO   OCC          E(Eh)            E(eV) 
   0   2.0000     -18.757276      -510.4114 
   1   2.0000      -9.923724      -270.0383 
   2   2.0000      -0.939752       -25.5720 
   3   2.0000      -0.619723       -16.8635 
   4   2.0000      -0.461560       -12.5597 
   5   2.0000      -0.392196       -10.6722 
   6   2.0000      -0.381933       -10.3929 
   7   2.0000      -0.294864        -8.0237 
   8   2.0000      -0.231593        -6.3020 
   9   0.0000      -0.023833        -0.6485 
  10   0.0000      -0.000732        -0.0199 
  11   0.0000       0.018851         0.5130 
  12   0.0000       0.022901         0.6232 
  13   0.0000       0.052881         1.4390 
  14   0.0000       0.064956         1.7675 
  15   0.0000       0.084009         2.2860 
  16   0.0000       0.084919         2.3108 
  17   0.0000       0.095987         2.6119 
  18   0.0000       0.105179         2.8621 
  19   0.0000       0.108069         2.9407 
  20   0.0000       0.112692         3.0665 
  21   0.0000       0.120004         3.2655 
  22   0.0000       0.147406         4.0111 
  23   0.0000       0.178049         4.8450 
  24   0.0000       0.210219         5.7203 
  25   0.0000       0.212806         5.7908 
  26   0.0000       0.232132         6.3166 
  27   0.0000       0.235951         6.4205 
  28   0.0000       0.244488         6.6529 
  29   0.0000       0.257916         7.0183 
  30   0.0000       0.263359         7.1664 
  31   0.0000       0.273336         7.4379 
  32   0.0000       0.290678         7.9097 
  33   0.0000       0.305288         8.3073 
  34   0.0000       0.312295         8.4980 
  35   0.0000       0.314112         8.5474 
  36   0.0000       0.332690         9.0530 
  37   0.0000       0.342795         9.3279 
  38   0.0000       0.360246         9.8028 
  39   0.0000       0.369849        10.0641 
  40   0.0000       0.388869        10.5817 
  41   0.0000       0.405986        11.0475 
  42   0.0000       0.409259        11.1365 
  43   0.0000       0.509777        13.8717 
  44   0.0000       0.511804        13.9269 
  45   0.0000       0.536656        14.6032 
  46   0.0000       0.560650        15.2561 
  47   0.0000       0.604185        16.4407 
  48   0.0000       0.615098        16.7377 
  49   0.0000       0.633910        17.2496 
  50   0.0000       0.653684        17.7877 
  51   0.0000       0.673563        18.3286 
  52   0.0000       0.676038        18.3959 
  53   0.0000       0.721458        19.6319 
  54   0.0000       0.731693        19.9104 
  55   0.0000       0.769408        20.9367 
  56   0.0000       0.770616        20.9695 
  57   0.0000       0.772867        21.0308 
  58   0.0000       0.781443        21.2642 
  59   0.0000       0.807744        21.9798 
  60   0.0000       0.817619        22.2486 
  61   0.0000       0.823372        22.4051 
  62   0.0000       0.851756        23.1775 
  63   0.0000       0.872626        23.7454 
  64   0.0000       0.893643        24.3173 
  65   0.0000       0.894180        24.3319 
  66   0.0000       0.924313        25.1518 
  67   0.0000       0.948817        25.8186 
  68   0.0000       0.963631        26.2217 
  69   0.0000       0.970061        26.3967 
  70   0.0000       0.970469        26.4078 
  71   0.0000       1.017721        27.6936 
  72   0.0000       1.040905        28.3245 
  73   0.0000       1.041772        28.3481 
  74   0.0000       1.099587        29.9213 
  75   0.0000       1.136268        30.9194 
  76   0.0000       1.144481        31.1429 
  77   0.0000       1.173365        31.9289 
  78   0.0000       1.206022        32.8175 
  79   0.0000       1.211814        32.9751 
  80   0.0000       1.310013        35.6473 
  81   0.0000       1.340138        36.4670 
  82   0.0000       1.341614        36.5072 
  83   0.0000       1.364129        37.1198 
  84   0.0000       1.364136        37.1200 
  85   0.0000       1.380940        37.5773 
  86   0.0000       1.407197        38.2918 
  87   0.0000       1.429317        38.8937 
  88   0.0000       1.435022        39.0489 
  89   0.0000       1.467043        39.9203 
  90   0.0000       1.484956        40.4077 
  91   0.0000       1.507337        41.0167 
  92   0.0000       1.619199        44.0606 
  93   0.0000       1.659944        45.1694 
  94   0.0000       1.682154        45.7737 
  95   0.0000       1.720895        46.8279 
  96   0.0000       1.774646        48.2906 
  97   0.0000       1.791194        48.7409 
  98   0.0000       1.801661        49.0257 
  99   0.0000       1.819109        49.5005 
 100   0.0000       1.898410        51.6584 
 101   0.0000       1.902571        51.7716 
 102   0.0000       2.045856        55.6706 
 103   0.0000       2.153045        58.5873 
 104   0.0000       2.155361        58.6504 
 105   0.0000       2.175319        59.1934 
 106   0.0000       2.226454        60.5849 
 107   0.0000       2.241859        61.0041 
 108   0.0000       2.407156        65.5021 
 109   0.0000       2.433114        66.2084 
 110   0.0000       2.451984        66.7219 
 111   0.0000       2.488102        67.7047 
 112   0.0000       2.548667        69.3528 
 113   0.0000       2.617298        71.2203 
 114   0.0000       2.640386        71.8486 
 115   0.0000       2.693987        73.3071 
 116   0.0000       2.821719        76.7829 
 117   0.0000       2.930412        79.7406 
 118   0.0000       2.991845        81.4122 
 119   0.0000       3.101151        84.3866 
 120   0.0000       3.154474        85.8376 
 121   0.0000       3.187490        86.7360 
 122   0.0000       3.224068        87.7313 
 123   0.0000       3.232841        87.9701 
 124   0.0000       3.306310        89.9693 
 125   0.0000       3.368684        91.6665 
 126   0.0000       3.435697        93.4901 
 127   0.0000       3.468404        94.3801 
 128   0.0000       3.494660        95.0945 
 129   0.0000       3.532102        96.1134 
 130   0.0000       3.607351        98.1610 
 131   0.0000       3.648073        99.2691 
 132   0.0000       3.695664       100.5641 
 133   0.0000       3.695844       100.5690 
 134   0.0000       3.739500       101.7570 
 135   0.0000       3.787768       103.0704 
 136   0.0000       3.823276       104.0366 
 137   0.0000       3.863953       105.1435 
 138   0.0000       3.875097       105.4468 
 139   0.0000       4.037655       109.8702 
 140   0.0000       4.100489       111.5800 
 141   0.0000       4.109861       111.8350 
 142   0.0000       4.127362       112.3112 
 143   0.0000       4.169269       113.4516 
 144   0.0000       4.242757       115.4513 
 145   0.0000       4.324195       117.6673 
 146   0.0000       4.328536       117.7854 
 147   0.0000       4.366156       118.8092 
 148   0.0000       4.482599       121.9777 
 149   0.0000       4.545817       123.6980 
 150   0.0000       4.620660       125.7345 
 151   0.0000       4.633809       126.0924 
 152   0.0000       4.656666       126.7143 
 153   0.0000       4.713930       128.2726 
 154   0.0000       4.803704       130.7154 
 155   0.0000       4.823869       131.2641 
 156   0.0000       4.895208       133.2054 
 157   0.0000       4.999883       136.0537 
 158   0.0000       5.087213       138.4301 
 159   0.0000       5.139977       139.8659 
 160   0.0000       5.152119       140.1963 
 161   0.0000       5.189317       141.2085 
 162   0.0000       5.249996       142.8596 
 163   0.0000       5.592454       152.1784 
 164   0.0000       5.634700       153.3280 
 165   0.0000       5.640399       153.4831 
 166   0.0000       5.672194       154.3482 
 167   0.0000       5.987876       162.9384 
 168   0.0000       6.147232       167.2747 
 169   0.0000       6.160802       167.6439 
 170   0.0000       6.303748       171.5337 
 171   0.0000       6.318131       171.9251 
 172   0.0000       6.481237       176.3634 
 173   0.0000       6.653710       181.0567 
 174   0.0000       6.711031       182.6164 
 175   0.0000       6.740416       183.4161 
 176   0.0000       6.873950       187.0497 
 177   0.0000       6.913608       188.1288 
 178   0.0000       7.084912       192.7903 
 179   0.0000       7.216560       196.3726 
 180   0.0000       7.499691       204.0770 
 181   0.0000       7.866208       214.0504 
 182   0.0000      14.680618       399.4799 
 183   0.0000      16.567398       450.8218 

                    ********************************
                    * MULLIKEN POPULATION ANALYSIS *
                    ********************************

-----------------------
MULLIKEN ATOMIC CHARGES
-----------------------
   0 O :   -0.370971
   1 C :   -0.459913
   2 H :    0.130296
   3 H :    0.266485
   4 H :    0.217052
   5 H :    0.217052
Sum of atomic charges:    0.0000000

--------------------------------
MULLIKEN REDUCED ORBITAL CHARGES
--------------------------------
  0 O s       :     3.894217  s :     3.894217
      pz      :     1.857177  p :     4.436032
      px      :     1.272920
      py      :     1.305935
      dz2     :     0.001357  d :     0.037910
      dxz     :     0.011319
      dyz     :     0.001370
      dx2y2   :     0.010684
      dxy     :     0.013179
      f0      :     0.000475  f :     0.002812
      f+1     :     0.000502
      f-1     :     0.000152
      f+2     :     0.000699
      f-2     :     0.000075
      f+3     :    -0.000326
      f-3     :     0.001236
  1 C s       :     3.346166  s :     3.346166
      pz      :     1.080276  p :     2.914341
      px      :     0.683482
      py      :     1.150584
      dz2     :     0.012725  d :     0.180929
      dxz     :     0.077701
      dyz     :     0.016354
      dx2y2   :     0.021584
      dxy     :     0.052566
      f0      :     0.003535  f :     0.018477
      f+1     :     0.000930
      f-1     :     0.001858
      f+2     :     0.003848
      f-2     :     0.000815
      f+3     :     0.001033
      f-3     :     0.006457
  2 H s       :     0.727640  s :     0.727640
      pz      :     0.059668  p :     0.119702
      px      :     0.045681
      py      :     0.014353
      dz2     :     0.001169  d :     0.022363
      dxz     :     0.001951
      dyz     :     0.007960
      dx2y2   :     0.004722
      dxy     :     0.006560
  3 H s       :     0.708619  s :     0.708619
      pz      :     0.004361  p :     0.024665
      px      :     0.003582
      py      :     0.016722
      dz2     :    -0.000725  d :     0.000231
      dxz     :     0.000556
      dyz     :     0.001374
      dx2y2   :    -0.000666
      dxy     :    -0.000308
  4 H s       :     0.744990  s :     0.744990
      pz      :     0.011936  p :     0.036822
      px      :     0.015092
      py      :     0.009794
      dz2     :     0.001156  d :     0.001136
      dxz     :    -0.000291
      dyz     :     0.000232
      dx2y2   :     0.000085
      dxy     :    -0.000047
  5 H s       :     0.744990  s :     0.744990
      pz      :     0.011936  p :     0.036822
      px      :     0.015092
      py      :     0.009794
      dz2     :     0.001156  d :     0.001136
      dxz     :    -0.000291
      dyz     :     0.000232
      dx2y2   :     0.000085
      dxy     :    -0.000047


                     *******************************
                     * LOEWDIN POPULATION ANALYSIS *
                     *******************************

----------------------
LOEWDIN ATOMIC CHARGES
----------------------
   0 O :    0.810879
   1 C :    0.291272
   2 H :   -0.519451
   3 H :   -0.200443
   4 H :   -0.191129
   5 H :   -0.191129

-------------------------------
LOEWDIN REDUCED ORBITAL CHARGES
-------------------------------
  0 O s       :     3.012469  s :     3.012469
      pz      :     1.421147  p :     3.845965
      px      :     1.163426
      py      :     1.261393
      dz2     :     0.025046  d :     0.264145
      dxz     :     0.070282
      dyz     :     0.001571
      dx2y2   :     0.068841
      dxy     :     0.098405
      f0      :     0.008029  f :     0.066542
      f+1     :     0.006115
      f-1     :     0.003322
      f+2     :     0.012873
      f-2     :     0.000722
      f+3     :     0.011066
      f-3     :     0.024413
  1 C s       :     2.482746  s :     2.482746
      pz      :     0.808246  p :     2.238223
      px      :     0.617029
      py      :     0.812947
      dz2     :     0.087371  d :     0.682326
      dxz     :     0.209541
      dyz     :     0.056580
      dx2y2   :     0.155657
      dxy     :     0.173177
      f0      :     0.036985  f :     0.305432
      f+1     :     0.040882
      f-1     :     0.018057
      f+2     :     0.057523
      f-2     :     0.011618
      f+3     :     0.048087
      f-3     :     0.092279
  2 H s       :     0.598815  s :     0.598815
      pz      :     0.166810  p :     0.559495
      px      :     0.137073
      py      :     0.255611
      dz2     :     0.033261  d :     0.361141
      dxz     :     0.017277
      dyz     :     0.104044
      dx2y2   :     0.117843
      dxy     :     0.088716
  3 H s       :     0.661363  s :     0.661363
      pz      :     0.094582  p :     0.313436
      px      :     0.067892
      py      :     0.150961
      dz2     :     0.016440  d :     0.225644
      dxz     :     0.009750
      dyz     :     0.084920
      dx2y2   :     0.065353
      dxy     :     0.049182
  4 H s       :     0.664244  s :     0.664244
      pz      :     0.136410  p :     0.311830
      px      :     0.068058
      py      :     0.107362
      dz2     :     0.075075  d :     0.215055
      dxz     :     0.035757
      dyz     :     0.048614
      dx2y2   :     0.039234
      dxy     :     0.016375
  5 H s       :     0.664244  s :     0.664244
      pz      :     0.136410  p :     0.311830
      px      :     0.068058
      py      :     0.107362
      dz2     :     0.075076  d :     0.215055
      dxz     :     0.035757
      dyz     :     0.048614
      dx2y2   :     0.039234
      dxy     :     0.016375


                      *****************************
                      * MAYER POPULATION ANALYSIS *
                      *****************************

  NA   - Mulliken gross atomic population
  ZA   - Total nuclear charge
  QA   - Mulliken gross atomic charge
  VA   - Mayer's total valence
  BVA  - Mayer's bonded valence
  FA   - Mayer's free valence

  ATOM       NA         ZA         QA         VA         BVA        FA
  0 O      8.3710     8.0000    -0.3710     1.9502     1.9502     0.0000
  1 C      6.4599     6.0000    -0.4599     3.6999     3.6999     0.0000
  2 H      0.8697     1.0000     0.1303     1.1014     1.1014     0.0000
  3 H      0.7335     1.0000     0.2665     0.9376     0.9376     0.0000
  4 H      0.7829     1.0000     0.2171     0.9916     0.9916    -0.0000
  5 H      0.7829     1.0000     0.2171     0.9916     0.9916     0.0000

  Mayer bond orders larger than 0.100000
B(  0-O ,  1-C ) :   0.8660 B(  0-O ,  2-H ) :   1.0291 B(  1-C ,  3-H ) :   0.9127 
B(  1-C ,  4-H ) :   0.9296 B(  1-C ,  5-H ) :   0.9296 

-------
TIMINGS
-------

Total SCF time: 0 days 0 hours 0 min 54 sec 

Total time                  ....      54.992 sec
Sum of individual times     ....      48.950 sec  ( 89.0%)

Fock matrix formation       ....      20.265 sec  ( 36.9%)
  Split-RI-J                ....       9.230 sec  ( 45.5% of F)
  XC integration            ....       3.400 sec  ( 16.8% of F)
    Basis function eval.    ....       0.492 sec  ( 14.5% of XC)
    Density eval.           ....       0.449 sec  ( 13.2% of XC)
    XC-Functional eval.     ....       0.075 sec  (  2.2% of XC)
    XC-Potential eval.      ....       0.752 sec  ( 22.1% of XC)
Diagonalization             ....       5.962 sec  ( 10.8%)
Density matrix formation    ....       0.348 sec  (  0.6%)
Population analysis         ....       1.717 sec  (  3.1%)
Initial guess               ....       1.728 sec  (  3.1%)
Orbital Transformation      ....       0.000 sec  (  0.0%)
Orbital Orthonormalization  ....       0.000 sec  (  0.0%)
DIIS solution               ....       9.108 sec  ( 16.6%)
SOSCF solution              ....       8.944 sec  ( 16.3%)
Grid generation             ....       0.877 sec  (  1.6%)

Maximum memory used throughout the entire SCF-calculation: 14.0 MB

-------------------------   --------------------
FINAL SINGLE POINT ENERGY      -115.630486757521
-------------------------   --------------------


                            ***************************************
                            *     ORCA property calculations      *
                            ***************************************

                                    ---------------------
                                    Active property flags
                                    ---------------------
   (+) Dipole Moment


------------------------------------------------------------------------------
                       ORCA ELECTRIC PROPERTIES CALCULATION
------------------------------------------------------------------------------

Dipole Moment Calculation                       ... on
Quadrupole Moment Calculation                   ... off
Polarizability Calculation                      ... off
GBWName                                         ... methanol_PBE.gbw
Electron density                                ... methanol_PBE.scfp
The origin for moment calculation is the CENTER OF MASS  = ( 1.394614,  0.059375  0.000000)

-------------
DIPOLE MOMENT
-------------
                                X             Y             Z
Electronic contribution:      1.83074      -0.21597      -0.00000
Nuclear contribution   :     -2.16318       0.73846      -0.00000
                        -----------------------------------------
Total Dipole Moment    :     -0.33244       0.52249      -0.00000
                        -----------------------------------------
Magnitude (a.u.)       :      0.61929
Magnitude (Debye)      :      1.57410



--------------------
Rotational spectrum 
--------------------
 
Rotational constants in cm-1:     4.269304     0.832063     0.803124 
Rotational constants in MHz : 127990.526170 24944.610973 24077.065620 

 Dipole components along the rotational axes: 
x,y,z [a.u.] :    -0.315186     0.533081     0.000000 
x,y,z [Debye]:    -0.801138     1.354984     0.000000 

 

Timings for individual modules:

Sum of individual times         ...       57.780 sec (=   0.963 min)
GTO integral calculation        ...        1.863 sec (=   0.031 min)   3.2 %
SCF iterations                  ...       55.918 sec (=   0.932 min)  96.8 %
                             ****ORCA TERMINATED NORMALLY****
TOTAL RUN TIME: 0 days 0 hours 0 minutes 59 seconds 592 msec
