
                                 *****************
                                 * O   R   C   A *
                                 *****************

           --- An Ab Initio, DFT and Semiempirical electronic structure package ---

                  #######################################################
                  #                        -***-                        #
                  #          Department of theory and spectroscopy      #
                  #               Directorship: Frank Neese             #
                  #        Max Planck Institute fuer Kohlenforschung    #
                  #                Kaiser Wilhelm Platz 1               #
                  #                 D-45470 Muelheim/Ruhr               #
                  #                      Germany                        #
                  #                                                     #
                  #                  All rights reserved                #
                  #                        -***-                        #
                  #######################################################


                         Program Version 4.2.1 -  RELEASE  -


 With contributions from (in alphabetic order):
   Daniel Aravena         : Magnetic Suceptibility
   Michael Atanasov       : Ab Initio Ligand Field Theory (pilot matlab implementation)
   Alexander A. Auer      : GIAO ZORA, VPT2
   Ute Becker             : Parallelization
   Giovanni Bistoni       : ED, misc. LED, open-shell LED, HFLD
   Martin Brehm           : Molecular dynamics
   Dmytro Bykov           : SCF Hessian
   Vijay G. Chilkuri      : MRCI spin determinant printing, contributions to CSF-ICE
   Dipayan Datta          : RHF DLPNO-CCSD density
   Achintya Kumar Dutta   : EOM-CC, STEOM-CC
   Dmitry Ganyushin       : Spin-Orbit,Spin-Spin,Magnetic field MRCI
   Miquel Garcia          : C-PCM Hessian, Gaussian charge scheme
   Yang Guo               : DLPNO-NEVPT2, CIM, IAO-localization
   Andreas Hansen         : Spin unrestricted coupled pair/coupled cluster methods
   Benjamin Helmich-Paris : CASSCF linear response (MC-RPA)
   Lee Huntington         : MR-EOM, pCC
   Robert Izsak           : Overlap fitted RIJCOSX, COSX-SCS-MP3, EOM
   Christian Kollmar      : KDIIS, OOCD, Brueckner-CCSD(T), CCSD density
   Simone Kossmann        : Meta GGA functionals, TD-DFT gradient, OOMP2, MP2 Hessian
   Martin Krupicka        : AUTO-CI
   Lucas Lang             : DCDCAS
   Dagmar Lenk            : GEPOL surface, SMD
   Dimitrios Liakos       : Extrapolation schemes; Compound Job, initial MDCI parallelization
   Dimitrios Manganas     : Further ROCIS development; embedding schemes
   Dimitrios Pantazis     : SARC Basis sets
   Taras Petrenko         : DFT Hessian,TD-DFT gradient, ASA, ECA, R-Raman, ABS, FL, XAS/XES, NRVS
   Peter Pinski           : DLPNO-MP2, DLPNO-MP2 Gradient
   Christoph Reimann      : Effective Core Potentials
   Marius Retegan         : Local ZFS, SOC
   Christoph Riplinger    : Optimizer, TS searches, QM/MM, DLPNO-CCSD(T), (RO)-DLPNO pert. Triples
   Tobias Risthaus        : Range-separated hybrids, TD-DFT gradient, RPA, STAB
   Michael Roemelt        : Original ROCIS implementation
   Masaaki Saitow         : Open-shell DLPNO-CCSD energy and density
   Barbara Sandhoefer     : DKH picture change effects
   Avijit Sen             : IP-ROCIS
   Kantharuban Sivalingam : CASSCF convergence, NEVPT2, FIC-MRCI
   Bernardo de Souza      : ESD, SOC TD-DFT
   Georgi Stoychev        : AutoAux, RI-MP2 NMR
   Willem Van den Heuvel  : Paramagnetic NMR
   Boris Wezisla          : Elementary symmetry handling
   Frank Wennmohs         : Technical directorship


 We gratefully acknowledge several colleagues who have allowed us to
 interface, adapt or use parts of their codes:
   Stefan Grimme, W. Hujo, H. Kruse,             : VdW corrections, initial TS optimization,
                  C. Bannwarth                     DFT functionals, gCP, sTDA/sTD-DF
   Ed Valeev, F. Pavosevic, A. Kumar             : LibInt (2-el integral package), F12 methods
   Garnet Chan, S. Sharma, J. Yang, R. Olivares  : DMRG
   Ulf Ekstrom                                   : XCFun DFT Library
   Mihaly Kallay                                 : mrcc  (arbitrary order and MRCC methods)
   Andreas Klamt, Michael Diedenhofen            : otool_cosmo (COSMO solvation model)
   Jiri Pittner, Ondrej Demel                    : Mk-CCSD
   Frank Weinhold                                : gennbo (NPA and NBO analysis)
   Christopher J. Cramer and Donald G. Truhlar   : smd solvation model
   Lars Goerigk                                  : TD-DFT with DH, B97 family of functionals
   V. Asgeirsson, H. Jonsson                     : NEB implementation
   FAccTs GmbH                                   : IRC, NEB, NEB-TS, Multilevel, MM, QM/MM, CI optimization
   S Lehtola, MJT Oliveira, MAL Marques          : LibXC Library


 Your calculation uses the libint2 library for the computation of 2-el integrals
 For citations please refer to: http://libint.valeyev.net

 Your ORCA version has been built with support for libXC version: 4.2.3
 For citations please refer to: https://tddft.org/programs/libxc/

 This ORCA versions uses:
   CBLAS   interface :  Fast vector & matrix operations
   LAPACKE interface :  Fast linear algebra routines
   SCALAPACK package :  Parallel linear algebra routines




***************************************
The coordinates will be read from file: methanol_B3LYP_cc-pVTZ_OPT.xyz
***************************************


----- Orbital basis set information -----
Your calculation utilizes the basis: aug-cc-pVTZ 
    H, B-Ne : Obtained from the ccRepo (grant-hill.group.shef.ac.uk/ccrepo) Feb. 2017
              R. A. Kendall, T. H. Dunning, Jr., R. J. Harrison, J. Chem. Phys. 96, 6796 (1992)
         He : Obtained from the ccRepo (grant-hill.group.shef.ac.uk/ccrepo) Feb. 2017
              D. E. Woon, T. H. Dunning, Jr., J. Chem. Phys. 100, 2975 (1994)
  Li-Be, Na : Obtained from the ccRepo (grant-hill.group.shef.ac.uk/ccrepo) Feb. 2017
              B. P. Prascher, D. E. Woon, K. A. Peterson, T. H. Dunning, Jr., A. K. Wilson, Theor. Chem. Acc. 128, 69 (2011)
         Mg : Obtained from the Peterson Research Group Website (tyr0.chem.wsu.edu/~kipeters) Feb. 2017
              B. P. Prascher, D. E. Woon, K. A. Peterson, T. H. Dunning, Jr., A. K. Wilson, Theor. Chem. Acc. 128, 69 (2011)
      Al-Ar : Obtained from the ccRepo (grant-hill.group.shef.ac.uk/ccrepo) Feb. 2017
              D. E. Woon, T. H. Dunning, Jr., J. Chem. Phys. 98, 1358 (1993)
      Sc-Zn : Obtained from the ccRepo (grant-hill.group.shef.ac.uk/ccrepo) Feb. 2017
              N. B. Balabanov, K. A. Peterson, J. Chem. Phys. 123, 064107 (2005)
              N. B. Balabanov, K. A. Peterson, J. Chem. Phys. 125, 074110 (2006)
      Ga-Kr : Obtained from the ccRepo (grant-hill.group.shef.ac.uk/ccrepo) Feb. 2017
              A. K. Wilson, D. E. Woon, K. A. Peterson, T. H. Dunning, Jr., J. Chem. Phys. 110, 7667 (1999)
     Ag, Au : Obtained from the Peterson Research Group Website (tyr0.chem.wsu.edu/~kipeters) Feb. 2017
              K. A. Peterson, C. Puzzarini, Theor. Chem. Acc. 114, 283 (2005)

================================================================================
                                        WARNINGS
                       Please study these warnings very carefully!
================================================================================


WARNING: The frozen-core approximation for MP2-gradient calculations is turned on by default.

WARNING: Geometry Optimization
  ===> : Switching off AutoStart
         For restart on a previous wavefunction, please use MOREAD

WARNING: Post HF methods need fully converged wavefunctions
  ===> : Setting SCFConvForced true
         You can overwrite this default with %scf ConvForced false 


INFO   : the flag for use of LIBINT has been found!

================================================================================
                                       INPUT FILE
================================================================================
NAME = methanol_MP2_aug-cc-pVTZ_OPT.inp
|  1> # methanol MP2/aug-cc-pVTZ Optimization
|  2> 
|  3> ! MP2 aug-cc-pVTZ TightSCF Opt PAL4
|  4> %maxcore 1000
|  5> 
|  6> * xyzfile 0 1 methanol_B3LYP_cc-pVTZ_OPT.xyz
|  7> 
|  8> 
|  9>                          ****END OF INPUT****
================================================================================

                       *****************************
                       * Geometry Optimization Run *
                       *****************************

Geometry optimization settings:
Update method            Update   .... BFGS
Choice of coordinates    CoordSys .... Z-matrix Internals
Initial Hessian          InHess   .... Almoef's Model

Convergence Tolerances:
Energy Change            TolE     ....  5.0000e-06 Eh
Max. Gradient            TolMAXG  ....  3.0000e-04 Eh/bohr
RMS Gradient             TolRMSG  ....  1.0000e-04 Eh/bohr
Max. Displacement        TolMAXD  ....  4.0000e-03 bohr
RMS Displacement         TolRMSD  ....  2.0000e-03 bohr
Strict Convergence                ....  False
------------------------------------------------------------------------------
                        ORCA OPTIMIZATION COORDINATE SETUP
------------------------------------------------------------------------------

The optimization will be done in new redundant internal coordinates
Making redundant internal coordinates   ...  (new redundants) done
Evaluating the initial hessian          ...  (Almloef) done
Evaluating the coordinates              ...  done
Calculating the B-matrix                .... done
Calculating the G-matrix                .... done
Diagonalizing the G-matrix              .... done
The first mode is                       ....    3
The number of degrees of freedom        ....   12

    -----------------------------------------------------------------
                    Redundant Internal Coordinates


    -----------------------------------------------------------------
         Definition                    Initial Value    Approx d2E/dq
    -----------------------------------------------------------------
      1. B(C   1,O   0)                  1.4197         0.501779   
      2. B(H   2,O   0)                  0.9607         0.518544   
      3. B(H   3,C   1)                  1.0887         0.361783   
      4. B(H   4,C   1)                  1.0957         0.352668   
      5. B(H   5,C   1)                  1.0957         0.352668   
      6. A(C   1,O   0,H   2)          108.5871         0.356807   
      7. A(O   0,C   1,H   4)          112.4277         0.337325   
      8. A(H   3,C   1,H   4)          108.1336         0.290101   
      9. A(O   0,C   1,H   5)          112.4277         0.337325   
     10. A(H   3,C   1,H   5)          108.1336         0.290101   
     11. A(H   4,C   1,H   5)          108.5994         0.288943   
     12. A(O   0,C   1,H   3)          106.9398         0.338763   
     13. D(H   4,C   1,O   0,H   2)    -61.4657         0.019910   
     14. D(H   5,C   1,O   0,H   2)     61.4657         0.019910   
     15. D(H   3,C   1,O   0,H   2)    180.0000         0.019910   
    -----------------------------------------------------------------

Number of atoms                         .... 6
Number of degrees of freedom            .... 15

         *************************************************************
         *                GEOMETRY OPTIMIZATION CYCLE   1            *
         *************************************************************
---------------------------------
CARTESIAN COORDINATES (ANGSTROEM)
---------------------------------
  O      1.430595   -0.008107    0.000000
  C      0.011217    0.021488    0.000000
  H      1.755743    0.895941   -0.000000
  H     -0.327644   -1.013165   -0.000000
  H     -0.396626    0.513897    0.889777
  H     -0.396626    0.513897   -0.889777

----------------------------
CARTESIAN COORDINATES (A.U.)
----------------------------
  NO LB      ZA    FRAG     MASS         X           Y           Z
   0 O     8.0000    0    15.999    2.703433   -0.015319    0.000000
   1 C     6.0000    0    12.011    0.021198    0.040606    0.000000
   2 H     1.0000    0     1.008    3.317874    1.693082   -0.000000
   3 H     1.0000    0     1.008   -0.619158   -1.914605   -0.000000
   4 H     1.0000    0     1.008   -0.749514    0.971124    1.681436
   5 H     1.0000    0     1.008   -0.749514    0.971124   -1.681436

--------------------------------
INTERNAL COORDINATES (ANGSTROEM)
--------------------------------
 O      0   0   0     0.000000000000     0.00000000     0.00000000
 C      1   0   0     1.419686293173     0.00000000     0.00000000
 H      1   2   0     0.960740481652   108.58707735     0.00000000
 H      2   1   3     1.088730434794   106.93980672   180.00000000
 H      2   1   3     1.095676485183   112.42768404   298.53434601
 H      2   1   3     1.095676485390   112.42768386    61.46565323

---------------------------
INTERNAL COORDINATES (A.U.)
---------------------------
 O      0   0   0     0.000000000000     0.00000000     0.00000000
 C      1   0   0     2.682818290179     0.00000000     0.00000000
 H      1   2   0     1.815536396094   108.58707735     0.00000000
 H      2   1   3     2.057402355426   106.93980672   180.00000000
 H      2   1   3     2.070528488373   112.42768404   298.53434601
 H      2   1   3     2.070528488764   112.42768386    61.46565323

---------------------
BASIS SET INFORMATION
---------------------
There are 3 groups of distinct atoms

 Group   1 Type O   : 19s6p3d2f contracted to 5s4p3d2f pattern {88111/3111/111/11}
 Group   2 Type C   : 19s6p3d2f contracted to 5s4p3d2f pattern {88111/3111/111/11}
 Group   3 Type H   : 6s3p2d contracted to 4s3p2d pattern {3111/111/11}

Atom   0O    basis set group =>   1
Atom   1C    basis set group =>   2
Atom   2H    basis set group =>   3
Atom   3H    basis set group =>   3
Atom   4H    basis set group =>   3
Atom   5H    basis set group =>   3


           ************************************************************
           *        Program running with 4 parallel MPI-processes     *
           *              working on a common directory               *
           ************************************************************
------------------------------------------------------------------------------
                           ORCA GTO INTEGRAL CALCULATION
------------------------------------------------------------------------------

                         BASIS SET STATISTICS AND STARTUP INFO

 # of primitive gaussian shells          ...  104
 # of primitive gaussian functions       ...  232
 # of contracted shells                  ...   64
 # of contracted basis functions         ...  184
 Highest angular momentum                ...    3
 Maximum contraction depth               ...    8
 Integral package used                   ... LIBINT
 Integral threshhold            Thresh   ...  2.500e-11
 Primitive cut-off              TCut     ...  2.500e-12


------------------------------ INTEGRAL EVALUATION ----------------------------


 * One electron integrals 
 Pre-screening matrix                    ... done
 Shell pair data                         ... done (   0.000 sec)



           ************************************************************
           *        Program running with 4 parallel MPI-processes     *
           *              working on a common directory               *
           ************************************************************
-------------------------------------------------------------------------------
                                 ORCA SCF
-------------------------------------------------------------------------------

------------
SCF SETTINGS
------------
Hamiltonian:
 Ab initio Hamiltonian  Method          .... Hartree-Fock(GTOs)


General Settings:
 Integral files         IntName         .... methanol_MP2_aug-cc-pVTZ_OPT
 Hartree-Fock type      HFTyp           .... RHF
 Total Charge           Charge          ....    0
 Multiplicity           Mult            ....    1
 Number of Electrons    NEL             ....   18
 Basis Dimension        Dim             ....  184
 Nuclear Repulsion      ENuc            ....     40.2938496551 Eh

Convergence Acceleration:
 DIIS                   CNVDIIS         .... on
   Start iteration      DIISMaxIt       ....    12
   Startup error        DIISStart       ....  0.200000
   # of expansion vecs  DIISMaxEq       ....     5
   Bias factor          DIISBfac        ....   1.050
   Max. coefficient     DIISMaxC        ....  10.000
 Newton-Raphson         CNVNR           .... off
 SOSCF                  CNVSOSCF        .... on
   Start iteration      SOSCFMaxIt      ....   150
   Startup grad/error   SOSCFStart      ....  0.003300
 Level Shifting         CNVShift        .... on
   Level shift para.    LevelShift      ....    0.2500
   Turn off err/grad.   ShiftErr        ....    0.0010
 Zerner damping         CNVZerner       .... off
 Static damping         CNVDamp         .... on
   Fraction old density DampFac         ....    0.7000
   Max. Damping (<1)    DampMax         ....    0.9800
   Min. Damping (>=0)   DampMin         ....    0.0000
   Turn off err/grad.   DampErr         ....    0.1000
 Fernandez-Rico         CNVRico         .... off

SCF Procedure:
 Maximum # iterations   MaxIter         ....   125
 SCF integral mode      SCFMode         .... Direct
   Integral package                     .... LIBINT
 Reset frequency        DirectResetFreq ....    20
 Integral Threshold     Thresh          ....  2.500e-11 Eh
 Primitive CutOff       TCut            ....  2.500e-12 Eh

Convergence Tolerance:
 Convergence Check Mode ConvCheckMode   .... Total+1el-Energy
 Convergence forced     ConvForced      .... 1
 Energy Change          TolE            ....  1.000e-08 Eh
 1-El. energy change                    ....  1.000e-05 Eh
 Orbital Gradient       TolG            ....  1.000e-05
 Orbital Rotation angle TolX            ....  1.000e-05
 DIIS Error             TolErr          ....  5.000e-07


Diagonalization of the overlap matrix:
Smallest eigenvalue                        ... 6.283e-05
Time for diagonalization                   ...    0.005 sec
Threshold for overlap eigenvalues          ... 1.000e-08
Number of eigenvalues below threshold      ... 0
Time for construction of square roots      ...    0.002 sec
Total time needed                          ...    0.007 sec

-------------------
DFT GRID GENERATION
-------------------

General Integration Accuracy     IntAcc      ...  4.340
Radial Grid Type                 RadialGrid  ... Gauss-Chebyshev
Angular Grid (max. acc.)         AngularGrid ... Lebedev-110
Angular grid pruning method      GridPruning ... 3 (G Style)
Weight generation scheme         WeightScheme... Becke
Basis function cutoff            BFCut       ...    1.0000e-11
Integration weight cutoff        WCut        ...    1.0000e-14
Grids for H and He will be reduced by one unit

# of grid points (after initial pruning)     ...   6548 (   0.0 sec)
# of grid points (after weights+screening)   ...   6384 (   0.0 sec)
nearest neighbour list constructed           ...    0.0 sec
Grid point re-assignment to atoms done       ...    0.0 sec
Grid point division into batches done        ...    0.0 sec
Reduced shell lists constructed in    0.0 sec

Total number of grid points                  ...     6384
Total number of batches                      ...      103
Average number of points per batch           ...       61
Average number of grid points per atom       ...     1064
Average number of shells per batch           ...    59.93 (93.63%)
Average number of basis functions per batch  ...   172.15 (93.56%)
Average number of large shells per batch     ...    55.85 (93.20%)
Average number of large basis fcns per batch ...   161.41 (93.76%)
Maximum spatial batch extension              ...  15.02, 13.72, 20.95 au
Average spatial batch extension              ...   0.79,  0.74,  0.88 au

Time for grid setup =    0.018 sec

------------------------------
INITIAL GUESS: MODEL POTENTIAL
------------------------------
Loading Hartree-Fock densities                     ... done
Calculating cut-offs                               ... done
Setting up the integral package                    ... done
Initializing the effective Hamiltonian             ... done
Starting the Coulomb interaction                   ... done (   0.0 sec)
Reading the grid                                   ... done
Mapping shells                                     ... done
Starting the XC term evaluation                    ... done (   0.0 sec)
Transforming the Hamiltonian                       ... done (   0.0 sec)
Diagonalizing the Hamiltonian                      ... done (   0.0 sec)
Back transforming the eigenvectors                 ... done (   0.0 sec)
Now organizing SCF variables                       ... done
                      ------------------
                      INITIAL GUESS DONE (   0.1 sec)
                      ------------------
--------------
SCF ITERATIONS
--------------
ITER       Energy         Delta-E        Max-DP      RMS-DP      [F,P]     Damp
               ***  Starting incremental Fock matrix formation  ***
  0   -114.9701683951   0.000000000000 0.02780564  0.00067762  0.3104334 0.7000
  1   -115.0144148691  -0.044246474019 0.02042313  0.00049290  0.1866876 0.7000
                               ***Turning on DIIS***
  2   -115.0399904222  -0.025575553033 0.01486849  0.00031705  0.1103821 0.7000
  3   -115.3124850653  -0.272494643087 0.03725014  0.00070506  0.0830610 0.0000
  4   -115.0700820779   0.242402987336 0.00500431  0.00010090  0.0062526 0.0000
                      *** Initiating the SOSCF procedure ***
                           *** Shutting down DIIS ***
                      *** Re-Reading the Fockian *** 
                      *** Removing any level shift *** 
ITER      Energy       Delta-E        Grad      Rot      Max-DP    RMS-DP
  5   -115.09081982  -0.0207377376  0.000991  0.000991  0.001328  0.000038
               *** Restarting incremental Fock matrix formation ***
  6   -115.09201285  -0.0011930315  0.000319  0.000502  0.001070  0.000018
  7   -115.09201836  -0.0000055114  0.000143  0.000404  0.000407  0.000011
  8   -115.09201937  -0.0000010074  0.000063  0.000048  0.000050  0.000002
  9   -115.09201945  -0.0000000838  0.000014  0.000010  0.000034  0.000001
 10   -115.09201945  -0.0000000052  0.000004  0.000004  0.000007  0.000000
                 **** Energy Check signals convergence ****
              ***Rediagonalizing the Fockian in SOSCF/NRSCF***

               *****************************************************
               *                     SUCCESS                       *
               *           SCF CONVERGED AFTER  11 CYCLES          *
               *****************************************************


----------------
TOTAL SCF ENERGY
----------------

Total Energy       :         -115.09201946 Eh           -3131.81307 eV

Components:
Nuclear Repulsion  :           40.29384966 Eh            1096.45139 eV
Electronic Energy  :         -155.38586911 Eh           -4228.26446 eV
One Electron Energy:         -236.82109015 Eh           -6444.22948 eV
Two Electron Energy:           81.43522104 Eh            2215.96502 eV

Virial components:
Potential Energy   :         -229.99792987 Eh           -6258.56185 eV
Kinetic Energy     :          114.90591042 Eh            3126.74878 eV
Virial Ratio       :            2.00161966


---------------
SCF CONVERGENCE
---------------

  Last Energy change         ...   -7.3740e-10  Tolerance :   1.0000e-08
  Last MAX-Density change    ...    3.2144e-06  Tolerance :   1.0000e-07
  Last RMS-Density change    ...    6.7624e-08  Tolerance :   5.0000e-09
  Last Orbital Gradient      ...    8.5075e-07  Tolerance :   1.0000e-05
  Last Orbital Rotation      ...    1.5241e-06  Tolerance :   1.0000e-05

             **** THE GBW FILE WAS UPDATED (methanol_MP2_aug-cc-pVTZ_OPT.gbw) ****
             **** DENSITY FILE WAS UPDATED (methanol_MP2_aug-cc-pVTZ_OPT.scfp) ****
             **** ENERGY FILE WAS UPDATED (methanol_MP2_aug-cc-pVTZ_OPT.en.tmp) ****
             **** THE GBW FILE WAS UPDATED (methanol_MP2_aug-cc-pVTZ_OPT.gbw) ****
             **** DENSITY FILE WAS UPDATED (methanol_MP2_aug-cc-pVTZ_OPT.scfp) ****
----------------
ORBITAL ENERGIES
----------------

  NO   OCC          E(Eh)            E(eV) 
   0   2.0000     -20.559792      -559.4604 
   1   2.0000     -11.272096      -306.7293 
   2   2.0000      -1.357884       -36.9499 
   3   2.0000      -0.925576       -25.1862 
   4   2.0000      -0.691464       -18.8157 
   5   2.0000      -0.619373       -16.8540 
   6   2.0000      -0.593938       -16.1619 
   7   2.0000      -0.503573       -13.7029 
   8   2.0000      -0.451624       -12.2893 
   9   0.0000       0.028509         0.7758 
  10   0.0000       0.042916         1.1678 
  11   0.0000       0.046708         1.2710 
  12   0.0000       0.052998         1.4422 
  13   0.0000       0.099079         2.6961 
  14   0.0000       0.116702         3.1756 
  15   0.0000       0.129191         3.5155 
  16   0.0000       0.139986         3.8092 
  17   0.0000       0.165420         4.5013 
  18   0.0000       0.172812         4.7025 
  19   0.0000       0.182685         4.9711 
  20   0.0000       0.211536         5.7562 
  21   0.0000       0.215781         5.8717 
  22   0.0000       0.268251         7.2995 
  23   0.0000       0.269043         7.3210 
  24   0.0000       0.293445         7.9851 
  25   0.0000       0.300490         8.1767 
  26   0.0000       0.320570         8.7231 
  27   0.0000       0.322105         8.7649 
  28   0.0000       0.333260         9.0685 
  29   0.0000       0.343336         9.3427 
  30   0.0000       0.351582         9.5670 
  31   0.0000       0.368884        10.0378 
  32   0.0000       0.391283        10.6473 
  33   0.0000       0.408611        11.1189 
  34   0.0000       0.433241        11.7891 
  35   0.0000       0.436913        11.8890 
  36   0.0000       0.445910        12.1338 
  37   0.0000       0.454388        12.3645 
  38   0.0000       0.460681        12.5358 
  39   0.0000       0.479857        13.0576 
  40   0.0000       0.506937        13.7945 
  41   0.0000       0.514166        13.9912 
  42   0.0000       0.524871        14.2825 
  43   0.0000       0.664173        18.0731 
  44   0.0000       0.667745        18.1703 
  45   0.0000       0.681385        18.5414 
  46   0.0000       0.753818        20.5124 
  47   0.0000       0.770426        20.9643 
  48   0.0000       0.781052        21.2535 
  49   0.0000       0.791872        21.5479 
  50   0.0000       0.805517        21.9192 
  51   0.0000       0.848902        23.0998 
  52   0.0000       0.856480        23.3060 
  53   0.0000       0.886973        24.1358 
  54   0.0000       0.900410        24.5014 
  55   0.0000       0.930973        25.3331 
  56   0.0000       0.936365        25.4798 
  57   0.0000       0.937493        25.5105 
  58   0.0000       0.950218        25.8568 
  59   0.0000       0.973601        26.4930 
  60   0.0000       0.978468        26.6255 
  61   0.0000       0.983345        26.7582 
  62   0.0000       1.016793        27.6684 
  63   0.0000       1.043898        28.4059 
  64   0.0000       1.070516        29.1302 
  65   0.0000       1.072770        29.1916 
  66   0.0000       1.093212        29.7478 
  67   0.0000       1.109715        30.1969 
  68   0.0000       1.122865        30.5547 
  69   0.0000       1.137943        30.9650 
  70   0.0000       1.145068        31.1589 
  71   0.0000       1.177969        32.0542 
  72   0.0000       1.200172        32.6583 
  73   0.0000       1.202312        32.7166 
  74   0.0000       1.250890        34.0384 
  75   0.0000       1.295368        35.2488 
  76   0.0000       1.315690        35.8017 
  77   0.0000       1.372415        37.3453 
  78   0.0000       1.407721        38.3060 
  79   0.0000       1.436642        39.0930 
  80   0.0000       1.530477        41.6464 
  81   0.0000       1.557446        42.3803 
  82   0.0000       1.559420        42.4340 
  83   0.0000       1.595329        43.4111 
  84   0.0000       1.599617        43.5278 
  85   0.0000       1.612539        43.8794 
  86   0.0000       1.650087        44.9011 
  87   0.0000       1.658014        45.1169 
  88   0.0000       1.671727        45.4900 
  89   0.0000       1.701194        46.2918 
  90   0.0000       1.731678        47.1214 
  91   0.0000       1.753255        47.7085 
  92   0.0000       1.885922        51.3185 
  93   0.0000       1.933018        52.6001 
  94   0.0000       1.955446        53.2104 
  95   0.0000       1.974857        53.7386 
  96   0.0000       2.031648        55.2839 
  97   0.0000       2.039341        55.4933 
  98   0.0000       2.070971        56.3540 
  99   0.0000       2.081276        56.6344 
 100   0.0000       2.163058        58.8598 
 101   0.0000       2.177748        59.2595 
 102   0.0000       2.376909        64.6790 
 103   0.0000       2.477016        67.4030 
 104   0.0000       2.482020        67.5392 
 105   0.0000       2.512430        68.3667 
 106   0.0000       2.553036        69.4716 
 107   0.0000       2.579686        70.1968 
 108   0.0000       2.731639        74.3317 
 109   0.0000       2.753708        74.9322 
 110   0.0000       2.781568        75.6903 
 111   0.0000       2.841875        77.3313 
 112   0.0000       2.890137        78.6446 
 113   0.0000       2.946001        80.1648 
 114   0.0000       2.983021        81.1721 
 115   0.0000       3.046132        82.8895 
 116   0.0000       3.184459        86.6535 
 117   0.0000       3.317885        90.2842 
 118   0.0000       3.379914        91.9721 
 119   0.0000       3.526778        95.9685 
 120   0.0000       3.548661        96.5640 
 121   0.0000       3.577492        97.3485 
 122   0.0000       3.624637        98.6314 
 123   0.0000       3.635182        98.9183 
 124   0.0000       3.702450       100.7488 
 125   0.0000       3.779349       102.8413 
 126   0.0000       3.854650       104.8904 
 127   0.0000       3.886387       105.7540 
 128   0.0000       3.935938       107.1023 
 129   0.0000       3.946383       107.3865 
 130   0.0000       3.990474       108.5863 
 131   0.0000       4.060909       110.5030 
 132   0.0000       4.082975       111.1034 
 133   0.0000       4.099185       111.5445 
 134   0.0000       4.164961       113.3344 
 135   0.0000       4.202922       114.3673 
 136   0.0000       4.224450       114.9531 
 137   0.0000       4.229623       115.0939 
 138   0.0000       4.277188       116.3882 
 139   0.0000       4.469970       121.6341 
 140   0.0000       4.501513       122.4924 
 141   0.0000       4.517773       122.9349 
 142   0.0000       4.544893       123.6728 
 143   0.0000       4.606106       125.3385 
 144   0.0000       4.645031       126.3977 
 145   0.0000       4.751191       129.2865 
 146   0.0000       4.753732       129.3556 
 147   0.0000       4.758940       129.4974 
 148   0.0000       4.902849       133.4133 
 149   0.0000       4.966558       135.1469 
 150   0.0000       5.012359       136.3932 
 151   0.0000       5.024321       136.7187 
 152   0.0000       5.062631       137.7612 
 153   0.0000       5.127578       139.5285 
 154   0.0000       5.240771       142.6086 
 155   0.0000       5.255191       143.0010 
 156   0.0000       5.376499       146.3020 
 157   0.0000       5.466855       148.7607 
 158   0.0000       5.515346       150.0802 
 159   0.0000       5.587738       152.0501 
 160   0.0000       5.589000       152.0844 
 161   0.0000       5.631251       153.2341 
 162   0.0000       5.715392       155.5237 
 163   0.0000       6.099254       165.9692 
 164   0.0000       6.100299       165.9976 
 165   0.0000       6.122137       166.5918 
 166   0.0000       6.154304       167.4671 
 167   0.0000       6.562203       178.5666 
 168   0.0000       6.612340       179.9309 
 169   0.0000       6.624684       180.2668 
 170   0.0000       6.875616       187.0950 
 171   0.0000       6.889067       187.4610 
 172   0.0000       7.062163       192.1712 
 173   0.0000       7.264533       197.6780 
 174   0.0000       7.309561       198.9033 
 175   0.0000       7.364823       200.4070 
 176   0.0000       7.472675       203.3418 
 177   0.0000       7.516643       204.5382 
 178   0.0000       7.728696       210.3085 
 179   0.0000       7.838493       213.2962 
 180   0.0000       8.136708       221.4111 
 181   0.0000       8.506019       231.4606 
 182   0.0000      15.540361       422.8747 
 183   0.0000      17.622120       479.5223 

                    ********************************
                    * MULLIKEN POPULATION ANALYSIS *
                    ********************************

-----------------------
MULLIKEN ATOMIC CHARGES
-----------------------
   0 O :   -0.501336
   1 C :   -0.622061
   2 H :    0.193628
   3 H :    0.323370
   4 H :    0.303200
   5 H :    0.303200
Sum of atomic charges:   -0.0000000

--------------------------------
MULLIKEN REDUCED ORBITAL CHARGES
--------------------------------
  0 O s       :     3.870739  s :     3.870739
      pz      :     1.904800  p :     4.599334
      px      :     1.325438
      py      :     1.369096
      dz2     :     0.002563  d :     0.028824
      dxz     :     0.004010
      dyz     :     0.001038
      dx2y2   :     0.015806
      dxy     :     0.005408
      f0      :     0.000298  f :     0.002439
      f+1     :     0.000662
      f-1     :     0.000321
      f+2     :     0.000225
      f-2     :     0.000052
      f+3     :     0.000266
      f-3     :     0.000615
  1 C s       :     3.256491  s :     3.256491
      pz      :     1.180261  p :     3.119719
      px      :     0.698345
      py      :     1.241113
      dz2     :     0.027731  d :     0.226202
      dxz     :     0.075100
      dyz     :     0.033568
      dx2y2   :     0.039978
      dxy     :     0.049825
      f0      :     0.003184  f :     0.019648
      f+1     :     0.001670
      f-1     :     0.002149
      f+2     :     0.003813
      f-2     :     0.001642
      f+3     :     0.001762
      f-3     :     0.005429
  2 H s       :     0.683599  s :     0.683599
      pz      :     0.048142  p :     0.099158
      px      :     0.042628
      py      :     0.008388
      dz2     :     0.000783  d :     0.023615
      dxz     :     0.001444
      dyz     :     0.008636
      dx2y2   :     0.005862
      dxy     :     0.006889
  3 H s       :     0.647244  s :     0.647244
      pz      :     0.002982  p :     0.029239
      px      :     0.002871
      py      :     0.023386
      dz2     :    -0.001121  d :     0.000147
      dxz     :     0.000305
      dyz     :     0.001864
      dx2y2   :    -0.000531
      dxy     :    -0.000371
  4 H s       :     0.662313  s :     0.662313
      pz      :     0.016239  p :     0.033498
      px      :     0.010402
      py      :     0.006857
      dz2     :     0.001301  d :     0.000989
      dxz     :    -0.000484
      dyz     :     0.000347
      dx2y2   :    -0.000250
      dxy     :     0.000075
  5 H s       :     0.662313  s :     0.662313
      pz      :     0.016239  p :     0.033498
      px      :     0.010402
      py      :     0.006857
      dz2     :     0.001301  d :     0.000989
      dxz     :    -0.000484
      dyz     :     0.000347
      dx2y2   :    -0.000250
      dxy     :     0.000075


                     *******************************
                     * LOEWDIN POPULATION ANALYSIS *
                     *******************************

----------------------
LOEWDIN ATOMIC CHARGES
----------------------
   0 O :    0.771977
   1 C :    0.319041
   2 H :   -0.511963
   3 H :   -0.199627
   4 H :   -0.189714
   5 H :   -0.189714

-------------------------------
LOEWDIN REDUCED ORBITAL CHARGES
-------------------------------
  0 O s       :     3.011020  s :     3.011020
      pz      :     1.443425  p :     3.894884
      px      :     1.177331
      py      :     1.274128
      dz2     :     0.025169  d :     0.258169
      dxz     :     0.065823
      dyz     :     0.001886
      dx2y2   :     0.069970
      dxy     :     0.095322
      f0      :     0.007837  f :     0.063950
      f+1     :     0.005778
      f-1     :     0.003102
      f+2     :     0.012395
      f-2     :     0.000869
      f+3     :     0.010456
      f-3     :     0.023514
  1 C s       :     2.474382  s :     2.474382
      pz      :     0.792844  p :     2.191501
      px      :     0.599931
      py      :     0.798726
      dz2     :     0.096411  d :     0.696278
      dxz     :     0.201052
      dyz     :     0.063745
      dx2y2   :     0.165387
      dxy     :     0.169683
      f0      :     0.039090  f :     0.318799
      f+1     :     0.041694
      f-1     :     0.018920
      f+2     :     0.061505
      f-2     :     0.012044
      f+3     :     0.049647
      f-3     :     0.095898
  2 H s       :     0.598124  s :     0.598124
      pz      :     0.158097  p :     0.542496
      px      :     0.135508
      py      :     0.248890
      dz2     :     0.033485  d :     0.371343
      dxz     :     0.017674
      dyz     :     0.109035
      dx2y2   :     0.120775
      dxy     :     0.090375
  3 H s       :     0.669410  s :     0.669410
      pz      :     0.089287  p :     0.303522
      px      :     0.064026
      py      :     0.150210
      dz2     :     0.016532  d :     0.226695
      dxz     :     0.008209
      dyz     :     0.087344
      dx2y2   :     0.066256
      dxy     :     0.048353
  4 H s       :     0.673554  s :     0.673554
      pz      :     0.133933  p :     0.299262
      px      :     0.062147
      py      :     0.103183
      dz2     :     0.077246  d :     0.216898
      dxz     :     0.034207
      dyz     :     0.048879
      dx2y2   :     0.041143
      dxy     :     0.015423
  5 H s       :     0.673554  s :     0.673554
      pz      :     0.133933  p :     0.299262
      px      :     0.062147
      py      :     0.103183
      dz2     :     0.077246  d :     0.216898
      dxz     :     0.034207
      dyz     :     0.048879
      dx2y2   :     0.041143
      dxy     :     0.015423


                      *****************************
                      * MAYER POPULATION ANALYSIS *
                      *****************************

  NA   - Mulliken gross atomic population
  ZA   - Total nuclear charge
  QA   - Mulliken gross atomic charge
  VA   - Mayer's total valence
  BVA  - Mayer's bonded valence
  FA   - Mayer's free valence

  ATOM       NA         ZA         QA         VA         BVA        FA
  0 O      8.5013     8.0000    -0.5013     1.8479     1.8479    -0.0000
  1 C      6.6221     6.0000    -0.6221     3.5834     3.5834    -0.0000
  2 H      0.8064     1.0000     0.1936     1.0376     1.0376    -0.0000
  3 H      0.6766     1.0000     0.3234     0.9583     0.9583    -0.0000
  4 H      0.6968     1.0000     0.3032     0.9878     0.9878    -0.0000
  5 H      0.6968     1.0000     0.3032     0.9878     0.9878     0.0000

  Mayer bond orders larger than 0.100000
B(  0-O ,  1-C ) :   0.8240 B(  0-O ,  2-H ) :   0.9838 B(  1-C ,  3-H ) :   0.9067 
B(  1-C ,  4-H ) :   0.9025 B(  1-C ,  5-H ) :   0.9025 

-------
TIMINGS
-------

Total SCF time: 0 days 0 hours 0 min 16 sec 

Total time                  ....      16.291 sec
Sum of individual times     ....      16.098 sec  ( 98.8%)

Fock matrix formation       ....      15.883 sec  ( 97.5%)
Diagonalization             ....       0.028 sec  (  0.2%)
Density matrix formation    ....       0.008 sec  (  0.1%)
Population analysis         ....       0.008 sec  (  0.0%)
Initial guess               ....       0.116 sec  (  0.7%)
Orbital Transformation      ....       0.000 sec  (  0.0%)
Orbital Orthonormalization  ....       0.000 sec  (  0.0%)
DIIS solution               ....       0.013 sec  (  0.1%)
SOSCF solution              ....       0.024 sec  (  0.1%)


           ************************************************************
           *        Program running with 4 parallel MPI-processes     *
           *              working on a common directory               *
           ************************************************************

------------------------------------------------------------------------------
                                ORCA  MP2 
------------------------------------------------------------------------------

Freezing NCore=4 chemical core electrons
MP2 will be done in the AO integral direct mode
The Q1-step will be done using symmetric double matrices
Dimension of the basis                    ...  184
Memory devoted for MP2                    ... 1000 MB   
Memory needed for all in one shot         ...   49 MB
Number of MOs that can be treated together...   40      
MP2 density construction                  ... relaxed
The MP2 gradient is requested => amplitudes will be stored on disk
Total number of MOs              ...    7
Number of MOs treated per batch  ...    2 
Number of batches necessary      ...    1 
OPERATORS   0/  0 PASS   0
-----------------------------------------------
 MP2 CORRELATION ENERGY   :     -0.436925129 Eh
-----------------------------------------------


---------------------
MP2 DENSITY FORMATION
---------------------

Completing the external part of the density      ... done
Storing the unrelaxed density                    ... done

Calculating G(D)                                 ... done
Completing the Lagrangian                        ... done
Solving the Z-vector equations                   ... 

------------------------------------------------------------------------------
                           ORCA CP-SCF CALCULATION
------------------------------------------------------------------------------

Input orbitals are from        ... methanol_MP2_aug-cc-pVTZ_OPT.gbw
Input Perturbation             ... methanol_MP2_aug-cc-pVTZ_OPT.pin.tmp
Wavefunction output            ... methanol_MP2_aug-cc-pVTZ_OPT.pout.tmp
Perturbation mode              ... Real perturbation (singlet)
Solver                         ... POPLE
Max. number of iterations      ... 128
Convergence tolerance          ... 1.000e-08
Integral handling              ... Direct
Number of perturbations        ... 1
Number of operators            ... 1
Orbital ranges used for CP-SCF:
 Operator 0:  Orbitals   0...  8  to   9...183
Variables per vector in CP-SCF ... 1575
Number of vectors sought       ... 1
     CP-SCF ITERATION   0: 
     CP-SCF ITERATION   1:      0.000164051606
     CP-SCF ITERATION   2:      0.000016209934
     CP-SCF ITERATION   3:      0.000001990946
     CP-SCF ITERATION   4:      0.000000072614
     CP-SCF ITERATION   5:      0.000000002944
                                                 ... done
Finalizing the relaxed density                   ... done
Transforming P to the AO basis                   ... done
Storing the relaxed density                      ... done

------------------------------------
ENERGY WEIGHTED DENSITY FINALIZATION
------------------------------------

Gathering the parts of the W-matrix              ...                                                      done
Forming the Z-density                            ... done
Transforming Z to the AO basis                   ... done
Calculating G(Z)                                 ... done
Finalizing the W-matrix                          ...                                                      done
Transforming W to the AO basis and storing       ... done

                *********************************************
                * UNRELAXED MP2 DENSITY POPULATION ANALYSIS *
                *********************************************

------------------------------------------------------------------------------
                           ORCA POPULATION ANALYSIS
------------------------------------------------------------------------------
Input electron density              ... methanol_MP2_aug-cc-pVTZ_OPT.pmp2ur
BaseName (.gbw .S,...)              ... methanol_MP2_aug-cc-pVTZ_OPT

                    ********************************
                    * MULLIKEN POPULATION ANALYSIS *
                    ********************************

-----------------------
MULLIKEN ATOMIC CHARGES
-----------------------
   0 O :   -0.488677
   1 C :   -0.619780
   2 H :    0.188878
   3 H :    0.320519
   4 H :    0.299530
   5 H :    0.299530
Sum of atomic charges:   -0.0000000

--------------------------------
MULLIKEN REDUCED ORBITAL CHARGES
--------------------------------
  0 O s       :     3.866542  s :     3.866542
      pz      :     1.888398  p :     4.556968
      px      :     1.312642
      py      :     1.355928
      dz2     :     0.008595  d :     0.058582
      dxz     :     0.010471
      dyz     :     0.007354
      dx2y2   :     0.020689
      dxy     :     0.011473
      f0      :     0.000847  f :     0.006584
      f+1     :     0.001224
      f-1     :     0.000866
      f+2     :     0.000823
      f-2     :     0.000642
      f+3     :     0.000971
      f-3     :     0.001212
  1 C s       :     3.253138  s :     3.253138
      pz      :     1.169350  p :     3.101038
      px      :     0.700594
      py      :     1.231093
      dz2     :     0.031018  d :     0.242875
      dxz     :     0.078895
      dyz     :     0.037864
      dx2y2   :     0.041457
      dxy     :     0.053640
      f0      :     0.003694  f :     0.022729
      f+1     :     0.002061
      f-1     :     0.002441
      f+2     :     0.004315
      f-2     :     0.002436
      f+3     :     0.001961
      f-3     :     0.005821
  2 H s       :     0.688356  s :     0.688356
      pz      :     0.050246  p :     0.099343
      px      :     0.042942
      py      :     0.006155
      dz2     :     0.000780  d :     0.023423
      dxz     :     0.001565
      dyz     :     0.008637
      dx2y2   :     0.005692
      dxy     :     0.006748
  3 H s       :     0.648077  s :     0.648077
      pz      :     0.004251  p :     0.030767
      px      :     0.004662
      py      :     0.021853
      dz2     :    -0.001008  d :     0.000637
      dxz     :     0.000413
      dyz     :     0.001877
      dx2y2   :    -0.000469
      dxy     :    -0.000175
  4 H s       :     0.663398  s :     0.663398
      pz      :     0.015491  p :     0.035584
      px      :     0.012427
      py      :     0.007666
      dz2     :     0.001331  d :     0.001489
      dxz     :    -0.000274
      dyz     :     0.000411
      dx2y2   :    -0.000169
      dxy     :     0.000191
  5 H s       :     0.663398  s :     0.663398
      pz      :     0.015491  p :     0.035584
      px      :     0.012427
      py      :     0.007666
      dz2     :     0.001331  d :     0.001489
      dxz     :    -0.000274
      dyz     :     0.000411
      dx2y2   :    -0.000169
      dxy     :     0.000191


                     *******************************
                     * LOEWDIN POPULATION ANALYSIS *
                     *******************************

----------------------
LOEWDIN ATOMIC CHARGES
----------------------
   0 O :    0.772591
   1 C :    0.313136
   2 H :   -0.509103
   3 H :   -0.198388
   4 H :   -0.189117
   5 H :   -0.189117

-------------------------------
LOEWDIN REDUCED ORBITAL CHARGES
-------------------------------
  0 O s       :     3.008946  s :     3.008946
      pz      :     1.431187  p :     3.863411
      px      :     1.168034
      py      :     1.264190
      dz2     :     0.031592  d :     0.286016
      dxz     :     0.070960
      dyz     :     0.007585
      dx2y2   :     0.076007
      dxy     :     0.099874
      f0      :     0.008417  f :     0.069036
      f+1     :     0.006636
      f-1     :     0.003745
      f+2     :     0.013003
      f-2     :     0.001525
      f+3     :     0.011580
      f-3     :     0.024130
  1 C s       :     2.472966  s :     2.472966
      pz      :     0.788133  p :     2.181423
      px      :     0.599581
      py      :     0.793708
      dz2     :     0.099653  d :     0.710235
      dxz     :     0.203596
      dyz     :     0.067440
      dx2y2   :     0.167780
      dxy     :     0.171764
      f0      :     0.039310  f :     0.322240
      f+1     :     0.042734
      f-1     :     0.019813
      f+2     :     0.061406
      f-2     :     0.013130
      f+3     :     0.050700
      f-3     :     0.095147
  2 H s       :     0.595154  s :     0.595154
      pz      :     0.159127  p :     0.545061
      px      :     0.135477
      py      :     0.250457
      dz2     :     0.033767  d :     0.368888
      dxz     :     0.017793
      dyz     :     0.107733
      dx2y2   :     0.119942
      dxy     :     0.089653
  3 H s       :     0.663874  s :     0.663874
      pz      :     0.090066  p :     0.308134
      px      :     0.065741
      py      :     0.152327
      dz2     :     0.016848  d :     0.226380
      dxz     :     0.008570
      dyz     :     0.086320
      dx2y2   :     0.066185
      dxy     :     0.048457
  4 H s       :     0.667950  s :     0.667950
      pz      :     0.135780  p :     0.304406
      px      :     0.064283
      py      :     0.104342
      dz2     :     0.076691  d :     0.216762
      dxz     :     0.034562
      dyz     :     0.048902
      dx2y2   :     0.040865
      dxy     :     0.015741
  5 H s       :     0.667950  s :     0.667950
      pz      :     0.135780  p :     0.304406
      px      :     0.064283
      py      :     0.104342
      dz2     :     0.076691  d :     0.216762
      dxz     :     0.034562
      dyz     :     0.048902
      dx2y2   :     0.040865
      dxy     :     0.015741


                      *****************************
                      * MAYER POPULATION ANALYSIS *
                      *****************************

  NA   - Mulliken gross atomic population
  ZA   - Total nuclear charge
  QA   - Mulliken gross atomic charge
  VA   - Mayer's total valence
  BVA  - Mayer's bonded valence
  FA   - Mayer's free valence

  ATOM       NA         ZA         QA         VA         BVA        FA
  0 O      8.4887     8.0000    -0.4887     2.1312     1.7270     0.4042
  1 C      6.6198     6.0000    -0.6198     3.6913     3.4060     0.2852
  2 H      0.8111     1.0000     0.1889     1.0465     0.9778     0.0687
  3 H      0.6795     1.0000     0.3205     0.9618     0.9151     0.0466
  4 H      0.7005     1.0000     0.2995     0.9937     0.9437     0.0500
  5 H      0.7005     1.0000     0.2995     0.9937     0.9437     0.0500

  Mayer bond orders larger than 0.100000
B(  0-O ,  1-C ) :   0.7667 B(  0-O ,  2-H ) :   0.9253 B(  1-C ,  3-H ) :   0.8668 
B(  1-C ,  4-H ) :   0.8630 B(  1-C ,  5-H ) :   0.8630 


                *******************************************
                * RELAXED MP2 DENSITY POPULATION ANALYSIS *
                *******************************************

------------------------------------------------------------------------------
                           ORCA POPULATION ANALYSIS
------------------------------------------------------------------------------
Input electron density              ... methanol_MP2_aug-cc-pVTZ_OPT.pmp2re
BaseName (.gbw .S,...)              ... methanol_MP2_aug-cc-pVTZ_OPT

                    ********************************
                    * MULLIKEN POPULATION ANALYSIS *
                    ********************************

-----------------------
MULLIKEN ATOMIC CHARGES
-----------------------
   0 O :   -0.446768
   1 C :   -0.721760
   2 H :    0.191137
   3 H :    0.344067
   4 H :    0.316662
   5 H :    0.316662
Sum of atomic charges:   -0.0000000

--------------------------------
MULLIKEN REDUCED ORBITAL CHARGES
--------------------------------
  0 O s       :     3.863105  s :     3.863105
      pz      :     1.861478  p :     4.517351
      px      :     1.297979
      py      :     1.357895
      dz2     :     0.008460  d :     0.059598
      dxz     :     0.012007
      dyz     :     0.007670
      dx2y2   :     0.018690
      dxy     :     0.012770
      f0      :     0.000889  f :     0.006714
      f+1     :     0.001212
      f-1     :     0.000891
      f+2     :     0.000873
      f-2     :     0.000651
      f+3     :     0.000925
      f-3     :     0.001273
  1 C s       :     3.296670  s :     3.296670
      pz      :     1.192830  p :     3.161139
      px      :     0.714618
      py      :     1.253691
      dz2     :     0.028681  d :     0.242682
      dxz     :     0.090175
      dyz     :     0.033481
      dx2y2   :     0.034531
      dxy     :     0.055814
      f0      :     0.003581  f :     0.021268
      f+1     :     0.001703
      f-1     :     0.002354
      f+2     :     0.003997
      f-2     :     0.002353
      f+3     :     0.001802
      f-3     :     0.005477
  2 H s       :     0.677722  s :     0.677722
      pz      :     0.058103  p :     0.110154
      px      :     0.043702
      py      :     0.008348
      dz2     :     0.000628  d :     0.020987
      dxz     :     0.001594
      dyz     :     0.007560
      dx2y2   :     0.004974
      dxy     :     0.006230
  3 H s       :     0.624591  s :     0.624591
      pz      :     0.006814  p :     0.031239
      px      :     0.002738
      py      :     0.021687
      dz2     :    -0.001005  d :     0.000103
      dxz     :     0.000359
      dyz     :     0.001839
      dx2y2   :    -0.000733
      dxy     :    -0.000357
  4 H s       :     0.647058  s :     0.647058
      pz      :     0.015563  p :     0.035216
      px      :     0.009608
      py      :     0.010045
      dz2     :     0.001255  d :     0.001064
      dxz     :    -0.000383
      dyz     :     0.000371
      dx2y2   :    -0.000325
      dxy     :     0.000147
  5 H s       :     0.647058  s :     0.647058
      pz      :     0.015563  p :     0.035216
      px      :     0.009608
      py      :     0.010045
      dz2     :     0.001255  d :     0.001064
      dxz     :    -0.000383
      dyz     :     0.000371
      dx2y2   :    -0.000325
      dxy     :     0.000147


                     *******************************
                     * LOEWDIN POPULATION ANALYSIS *
                     *******************************

----------------------
LOEWDIN ATOMIC CHARGES
----------------------
   0 O :    0.788956
   1 C :    0.295658
   2 H :   -0.509952
   3 H :   -0.197390
   4 H :   -0.188636
   5 H :   -0.188636

-------------------------------
LOEWDIN REDUCED ORBITAL CHARGES
-------------------------------
  0 O s       :     3.012176  s :     3.012176
      pz      :     1.413312  p :     3.842013
      px      :     1.165654
      py      :     1.263048
      dz2     :     0.031445  d :     0.287018
      dxz     :     0.072894
      dyz     :     0.007261
      dx2y2   :     0.074541
      dxy     :     0.100877
      f0      :     0.008500  f :     0.069837
      f+1     :     0.006720
      f-1     :     0.003798
      f+2     :     0.013259
      f-2     :     0.001443
      f+3     :     0.011724
      f-3     :     0.024394
  1 C s       :     2.477612  s :     2.477612
      pz      :     0.798970  p :     2.205261
      px      :     0.603347
      py      :     0.802944
      dz2     :     0.095176  d :     0.706683
      dxz     :     0.211136
      dyz     :     0.063572
      dx2y2   :     0.163653
      dxy     :     0.173145
      f0      :     0.038103  f :     0.314786
      f+1     :     0.042178
      f-1     :     0.019329
      f+2     :     0.059165
      f-2     :     0.012914
      f+3     :     0.050069
      f-3     :     0.093028
  2 H s       :     0.589530  s :     0.589530
      pz      :     0.168401  p :     0.559523
      px      :     0.136513
      py      :     0.254609
      dz2     :     0.033440  d :     0.360899
      dxz     :     0.017619
      dyz     :     0.103648
      dx2y2   :     0.118207
      dxy     :     0.087986
  3 H s       :     0.657619  s :     0.657619
      pz      :     0.092726  p :     0.312868
      px      :     0.067527
      py      :     0.152616
      dz2     :     0.016785  d :     0.226902
      dxz     :     0.009400
      dyz     :     0.085937
      dx2y2   :     0.065999
      dxy     :     0.048781
  4 H s       :     0.661331  s :     0.661331
      pz      :     0.136707  p :     0.310537
      px      :     0.067470
      py      :     0.106360
      dz2     :     0.076333  d :     0.216768
      dxz     :     0.035116
      dyz     :     0.048883
      dx2y2   :     0.040364
      dxy     :     0.016073
  5 H s       :     0.661331  s :     0.661331
      pz      :     0.136707  p :     0.310537
      px      :     0.067470
      py      :     0.106360
      dz2     :     0.076333  d :     0.216768
      dxz     :     0.035116
      dyz     :     0.048883
      dx2y2   :     0.040364
      dxy     :     0.016073


                      *****************************
                      * MAYER POPULATION ANALYSIS *
                      *****************************

  NA   - Mulliken gross atomic population
  ZA   - Total nuclear charge
  QA   - Mulliken gross atomic charge
  VA   - Mayer's total valence
  BVA  - Mayer's bonded valence
  FA   - Mayer's free valence

  ATOM       NA         ZA         QA         VA         BVA        FA
  0 O      8.4468     8.0000    -0.4468     2.2004     1.8047     0.3957
  1 C      6.7218     6.0000    -0.7218     3.7368     3.4541     0.2827
  2 H      0.8089     1.0000     0.1911     1.0582     0.9904     0.0678
  3 H      0.6559     1.0000     0.3441     0.9386     0.8924     0.0461
  4 H      0.6833     1.0000     0.3167     0.9739     0.9243     0.0496
  5 H      0.6833     1.0000     0.3167     0.9739     0.9243     0.0496

  Mayer bond orders larger than 0.100000
B(  0-O ,  1-C ) :   0.8575 B(  0-O ,  2-H ) :   0.9305 B(  1-C ,  3-H ) :   0.8490 
B(  1-C ,  4-H ) :   0.8474 B(  1-C ,  5-H ) :   0.8474 


----------------------------------
MP2 DERIVATIVE INTEGRAL GENERATION
----------------------------------


Input Wavefunction Amplitudes       ... methanol_MP2_aug-cc-pVTZ_OPT.mp2tsaa.tmp
Input Correlated Electron Density   ... methanol_MP2_aug-cc-pVTZ_OPT.pmp2re
Input Energy Weighted Density       ... methanol_MP2_aug-cc-pVTZ_OPT.wmp2.tmp
Input SCF Electron Density          ... methanol_MP2_aug-cc-pVTZ_OPT.scfp

One-Electron Terms    ...
                        ... One-Electron Terms done
Prescreening matrices              ... done

Batch handling in the gradient evaluation:
Memory available                      ... 1000.0 MB
Memory per occupied orbital in Q2     ...    1.8 MB
Memory per occupied orbital in Q3     ...    0.1 MB
Total memory requirement per |i>      ...    1.9 MB
Max. Number of orbitals possible      ...    532
Number of orbitals treated per batch  ...      7
Number of batches to be done          ...      1
Batch   0: i=    2 ...     8

---------------------------------------
MP2 TOTAL ENERGY:     -115.528944584 Eh
---------------------------------------

-----------------------------------
NORM OF THE MP2 GRADIENT:  0.007566
-----------------------------------

-------------------------   --------------------
FINAL SINGLE POINT ENERGY      -115.528944584482
-------------------------   --------------------

------------------------------------------------------------------------------
                         ORCA GEOMETRY RELAXATION STEP
------------------------------------------------------------------------------

Reading the OPT-File                    .... done
Getting information on internals        .... done
Copying old internal coords+grads       .... done
Making the new internal coordinates     .... (new redundants).... done
Validating the new internal coordinates .... (new redundants).... done
Calculating the B-matrix                .... done
Calculating the G,G- and P matrices     .... done
Transforming gradient to internals      .... done
Projecting the internal gradient        .... done
Number of atoms                         ....   6
Number of internal coordinates          ....  15
Current Energy                          ....  -115.528944584 Eh
Current gradient norm                   ....     0.007565777 Eh/bohr
Maximum allowed component of the step   ....  0.300
Current trust radius                    ....  0.300
Evaluating the initial hessian          ....  (Almloef) done
Projecting the Hessian                  .... done
Forming the augmented Hessian           .... done
Diagonalizing the augmented Hessian     .... done
Last element of RFO vector              ....  0.999891082
Lowest eigenvalues of augmented Hessian:
 -0.000074224  0.019909782  0.180640146  0.191755253  0.312632365
Length of the computed step             ....  0.014760459
The final length of the internal step   ....  0.014760459
Converting the step to cartesian space:
 Initial RMS(Int)=    0.0038111342
Transforming coordinates:
 Iter   0:  RMS(Cart)=    0.0036143430 RMS(Int)=    0.0038083751
 Iter   1:  RMS(Cart)=    0.0000073223 RMS(Int)=    0.0000083475
 Iter   2:  RMS(Cart)=    0.0000000306 RMS(Int)=    0.0000000340
done
Storing new coordinates                 .... done

                                .--------------------.
          ----------------------|Geometry convergence|-------------------------
          Item                value                   Tolerance       Converged
          ---------------------------------------------------------------------
          RMS gradient        0.0013015879            0.0001000000      NO
          MAX gradient        0.0025343931            0.0003000000      NO
          RMS step            0.0038111342            0.0020000000      NO
          MAX step            0.0071848207            0.0040000000      NO
          ........................................................
          Max(Bonds)      0.0038      Max(Angles)    0.24
          Max(Dihed)        0.02      Max(Improp)    0.00
          ---------------------------------------------------------------------

The optimization has not yet converged - more geometry cycles are needed


    ---------------------------------------------------------------------------
                         Redundant Internal Coordinates
                            (Angstroem and degrees)

        Definition                    Value    dE/dq     Step     New-Value
    ----------------------------------------------------------------------------
     1. B(C   1,O   0)                1.4197 -0.000403  0.0004    1.4201   
     2. B(H   2,O   0)                0.9607 -0.000220  0.0002    0.9610   
     3. B(H   3,C   1)                1.0887  0.001716 -0.0025    1.0862   
     4. B(H   4,C   1)                1.0957  0.002534 -0.0038    1.0919   
     5. B(H   5,C   1)                1.0957  0.002534 -0.0038    1.0919   
     6. A(C   1,O   0,H   2)          108.59  0.001498   -0.24    108.35   
     7. A(O   0,C   1,H   4)          112.43  0.001142   -0.21    112.22   
     8. A(H   3,C   1,H   4)          108.13 -0.001069    0.20    108.34   
     9. A(O   0,C   1,H   5)          112.43  0.001142   -0.21    112.22   
    10. A(H   3,C   1,H   5)          108.13 -0.001069    0.20    108.34   
    11. A(H   4,C   1,H   5)          108.60 -0.001195    0.21    108.81   
    12. A(O   0,C   1,H   3)          106.94  0.000910   -0.16    106.78   
    13. D(H   4,C   1,O   0,H   2)    -61.47 -0.000077    0.02    -61.44   
    14. D(H   5,C   1,O   0,H   2)     61.47  0.000077   -0.02     61.44   
    15. D(H   3,C   1,O   0,H   2)    180.00  0.000000   -0.00    180.00   
    ----------------------------------------------------------------------------

         *************************************************************
         *                GEOMETRY OPTIMIZATION CYCLE   2            *
         *************************************************************
---------------------------------
CARTESIAN COORDINATES (ANGSTROEM)
---------------------------------
  O      1.429031   -0.009208    0.000000
  C      0.009251    0.021482    0.000000
  H      1.751150    0.896161   -0.000000
  H     -0.326692   -1.011483   -0.000000
  H     -0.393040    0.513499    0.887846
  H     -0.393040    0.513499   -0.887846

----------------------------
CARTESIAN COORDINATES (A.U.)
----------------------------
  NO LB      ZA    FRAG     MASS         X           Y           Z
   0 O     8.0000    0    15.999    2.700477   -0.017401    0.000000
   1 C     6.0000    0    12.011    0.017482    0.040595    0.000000
   2 H     1.0000    0     1.008    3.309194    1.693499   -0.000000
   3 H     1.0000    0     1.008   -0.617358   -1.911426   -0.000000
   4 H     1.0000    0     1.008   -0.742738    0.970373    1.677786
   5 H     1.0000    0     1.008   -0.742738    0.970373   -1.677786

--------------------------------
INTERNAL COORDINATES (ANGSTROEM)
--------------------------------
 O      0   0   0     0.000000000000     0.00000000     0.00000000
 C      1   0   0     1.420111741058     0.00000000     0.00000000
 H      1   2   0     0.960965417531   108.34660367     0.00000000
 H      2   1   3     1.086220329253   106.77734600   180.00000000
 H      2   1   3     1.091874441655   112.21561844   298.55714801
 H      2   1   3     1.091874443166   112.21561831    61.44285125

---------------------------
INTERNAL COORDINATES (A.U.)
---------------------------
 O      0   0   0     0.000000000000     0.00000000     0.00000000
 C      1   0   0     2.683622270165     0.00000000     0.00000000
 H      1   2   0     1.815961463302   108.34660367     0.00000000
 H      2   1   3     2.052658943387   106.77734600   180.00000000
 H      2   1   3     2.063343667356   112.21561844   298.55714801
 H      2   1   3     2.063343670212   112.21561831    61.44285125



           ************************************************************
           *        Program running with 4 parallel MPI-processes     *
           *              working on a common directory               *
           ************************************************************


           ************************************************************
           *        Program running with 4 parallel MPI-processes     *
           *              working on a common directory               *
           ************************************************************

Diagonalization of the overlap matrix:
Smallest eigenvalue                        ... 6.207e-05
Time for diagonalization                   ...    0.005 sec
Threshold for overlap eigenvalues          ... 1.000e-08
Number of eigenvalues below threshold      ... 0
Time for construction of square roots      ...    0.003 sec
Total time needed                          ...    0.008 sec

--------------
SCF ITERATIONS
--------------
ITER       Energy         Delta-E        Max-DP      RMS-DP      [F,P]     Damp
               ***  Starting incremental Fock matrix formation  ***
                      *** Initiating the SOSCF procedure ***
                      *** Re-Reading the Fockian *** 
                      *** Removing any level shift *** 
ITER      Energy       Delta-E        Grad      Rot      Max-DP    RMS-DP
  0   -115.09211300 -115.0921129960  0.000599  0.000599  0.001284  0.000040
               *** Restarting incremental Fock matrix formation ***
  1   -115.09212561  -0.0000126144  0.000162  0.000182  0.000457  0.000013
  2   -115.09212705  -0.0000014377  0.000053  0.000119  0.000222  0.000006
  3   -115.09212722  -0.0000001693  0.000015  0.000014  0.000027  0.000001
  4   -115.09212723  -0.0000000095  0.000004  0.000006  0.000012  0.000000
                  ***Gradient check signals convergence***
              ***Rediagonalizing the Fockian in SOSCF/NRSCF***

               *****************************************************
               *                     SUCCESS                       *
               *           SCF CONVERGED AFTER   5 CYCLES          *
               *****************************************************

Total Energy       :         -115.09212723 Eh           -3131.81600 eV
  Last Energy change         ...   -9.2027e-10  Tolerance :   1.0000e-08
  Last MAX-Density change    ...    2.7916e-06  Tolerance :   1.0000e-07
             **** THE GBW FILE WAS UPDATED (methanol_MP2_aug-cc-pVTZ_OPT.gbw) ****
             **** DENSITY FILE WAS UPDATED (methanol_MP2_aug-cc-pVTZ_OPT.scfp) ****
             **** ENERGY FILE WAS UPDATED (methanol_MP2_aug-cc-pVTZ_OPT.en.tmp) ****
             **** THE GBW FILE WAS UPDATED (methanol_MP2_aug-cc-pVTZ_OPT.gbw) ****
             **** DENSITY FILE WAS UPDATED (methanol_MP2_aug-cc-pVTZ_OPT.scfp) ****
Total SCF time: 0 days 0 hours 0 min 7 sec 


           ************************************************************
           *        Program running with 4 parallel MPI-processes     *
           *              working on a common directory               *
           ************************************************************

------------------------------------------------------------------------------
                                ORCA  MP2 
------------------------------------------------------------------------------

Freezing NCore=4 chemical core electrons
MP2 will be done in the AO integral direct mode
The Q1-step will be done using symmetric double matrices
Dimension of the basis                    ...  184
Memory devoted for MP2                    ... 1000 MB   
Memory needed for all in one shot         ...   49 MB
Number of MOs that can be treated together...   40      
MP2 density construction                  ... relaxed
The MP2 gradient is requested => amplitudes will be stored on disk
Total number of MOs              ...    7
Number of MOs treated per batch  ...    2 
Number of batches necessary      ...    1 
OPERATORS   0/  0 PASS   0
-----------------------------------------------
 MP2 CORRELATION ENERGY   :     -0.436864773 Eh
-----------------------------------------------


---------------------
MP2 DENSITY FORMATION
---------------------

Completing the external part of the density      ... done
Storing the unrelaxed density                    ... done

Calculating G(D)                                 ... done
Completing the Lagrangian                        ... done
Solving the Z-vector equations                   ... 

------------------------------------------------------------------------------
                           ORCA CP-SCF CALCULATION
------------------------------------------------------------------------------

Input orbitals are from        ... methanol_MP2_aug-cc-pVTZ_OPT.gbw
Input Perturbation             ... methanol_MP2_aug-cc-pVTZ_OPT.pin.tmp
Wavefunction output            ... methanol_MP2_aug-cc-pVTZ_OPT.pout.tmp
Perturbation mode              ... Real perturbation (singlet)
Solver                         ... POPLE
Max. number of iterations      ... 128
Convergence tolerance          ... 1.000e-08
Integral handling              ... Direct
Number of perturbations        ... 1
Number of operators            ... 1
Orbital ranges used for CP-SCF:
 Operator 0:  Orbitals   0...  8  to   9...183
Variables per vector in CP-SCF ... 1575
Number of vectors sought       ... 1
     CP-SCF ITERATION   0: 
     CP-SCF ITERATION   1:      0.000163434446
     CP-SCF ITERATION   2:      0.000016364400
     CP-SCF ITERATION   3:      0.000001982653
     CP-SCF ITERATION   4:      0.000000072137
     CP-SCF ITERATION   5:      0.000000002901
                                                 ... done
Finalizing the relaxed density                   ... done
Transforming P to the AO basis                   ... done
Storing the relaxed density                      ... done

------------------------------------
ENERGY WEIGHTED DENSITY FINALIZATION
------------------------------------

Gathering the parts of the W-matrix              ...                                                      done
Forming the Z-density                            ... done
Transforming Z to the AO basis                   ... done
Calculating G(Z)                                 ... done
Finalizing the W-matrix                          ...                                                      done
Transforming W to the AO basis and storing       ... done

----------------------------------
MP2 DERIVATIVE INTEGRAL GENERATION
----------------------------------


Input Wavefunction Amplitudes       ... methanol_MP2_aug-cc-pVTZ_OPT.mp2tsaa.tmp
Input Correlated Electron Density   ... methanol_MP2_aug-cc-pVTZ_OPT.pmp2re
Input Energy Weighted Density       ... methanol_MP2_aug-cc-pVTZ_OPT.wmp2.tmp
Input SCF Electron Density          ... methanol_MP2_aug-cc-pVTZ_OPT.scfp

One-Electron Terms    ...
                        ... One-Electron Terms done
Prescreening matrices              ... done

Batch handling in the gradient evaluation:
Memory available                      ... 1000.0 MB
Memory per occupied orbital in Q2     ...    1.8 MB
Memory per occupied orbital in Q3     ...    0.1 MB
Total memory requirement per |i>      ...    1.9 MB
Max. Number of orbitals possible      ...    532
Number of orbitals treated per batch  ...      7
Number of batches to be done          ...      1
Batch   0: i=    2 ...     8

---------------------------------------
MP2 TOTAL ENERGY:     -115.528992001 Eh
---------------------------------------

-----------------------------------
NORM OF THE MP2 GRADIENT:  0.003656
-----------------------------------

-------------------------   --------------------
FINAL SINGLE POINT ENERGY      -115.528992000627
-------------------------   --------------------

------------------------------------------------------------------------------
                         ORCA GEOMETRY RELAXATION STEP
------------------------------------------------------------------------------

Reading the OPT-File                    .... done
Getting information on internals        .... done
Copying old internal coords+grads       .... done
Making the new internal coordinates     .... (new redundants).... done
Validating the new internal coordinates .... (new redundants).... done
Calculating the B-matrix                .... done
Calculating the G,G- and P matrices     .... done
Transforming gradient to internals      .... done
Projecting the internal gradient        .... done
Number of atoms                         ....   6
Number of internal coordinates          ....  15
Current Energy                          ....  -115.528992001 Eh
Current gradient norm                   ....     0.003656334 Eh/bohr
Maximum allowed component of the step   ....  0.300
Current trust radius                    ....  0.300
Updating the Hessian (BFGS)             .... done
Forming the augmented Hessian           .... done
Diagonalizing the augmented Hessian     .... done
Last element of RFO vector              ....  0.999950322
Lowest eigenvalues of augmented Hessian:
 -0.000019918  0.019909782  0.179707191  0.190847946  0.191755253
Length of the computed step             ....  0.009968168
The final length of the internal step   ....  0.009968168
Converting the step to cartesian space:
 Initial RMS(Int)=    0.0025737700
Transforming coordinates:
 Iter   0:  RMS(Cart)=    0.0022146585 RMS(Int)=    0.0025706778
 Iter   1:  RMS(Cart)=    0.0000052112 RMS(Int)=    0.0000064829
 Iter   2:  RMS(Cart)=    0.0000000182 RMS(Int)=    0.0000000145
done
Storing new coordinates                 .... done

                                .--------------------.
          ----------------------|Geometry convergence|-------------------------
          Item                value                   Tolerance       Converged
          ---------------------------------------------------------------------
          Energy change      -0.0000474161            0.0000050000      NO
          RMS gradient        0.0005388191            0.0001000000      NO
          MAX gradient        0.0011679792            0.0003000000      NO
          RMS step            0.0025737700            0.0020000000      NO
          MAX step            0.0038125066            0.0040000000      YES
          ........................................................
          Max(Bonds)      0.0018      Max(Angles)    0.22
          Max(Dihed)        0.01      Max(Improp)    0.00
          ---------------------------------------------------------------------

The optimization has not yet converged - more geometry cycles are needed


    ---------------------------------------------------------------------------
                         Redundant Internal Coordinates
                            (Angstroem and degrees)

        Definition                    Value    dE/dq     Step     New-Value
    ----------------------------------------------------------------------------
     1. B(C   1,O   0)                1.4201 -0.001168  0.0018    1.4219   
     2. B(H   2,O   0)                0.9610 -0.000040  0.0001    0.9611   
     3. B(H   3,C   1)                1.0862  0.000076 -0.0006    1.0857   
     4. B(H   4,C   1)                1.0919  0.000183 -0.0010    1.0909   
     5. B(H   5,C   1)                1.0919  0.000183 -0.0010    1.0909   
     6. A(C   1,O   0,H   2)          108.35  0.000726   -0.20    108.15   
     7. A(O   0,C   1,H   4)          112.22  0.000679   -0.21    112.01   
     8. A(H   3,C   1,H   4)          108.34 -0.000585    0.18    108.52   
     9. A(O   0,C   1,H   5)          112.22  0.000679   -0.21    112.01   
    10. A(H   3,C   1,H   5)          108.34 -0.000585    0.18    108.52   
    11. A(H   4,C   1,H   5)          108.81 -0.000740    0.22    109.03   
    12. A(O   0,C   1,H   3)          106.78  0.000487   -0.15    106.63   
    13. D(H   4,C   1,O   0,H   2)    -61.44 -0.000023    0.01    -61.43   
    14. D(H   5,C   1,O   0,H   2)     61.44  0.000023   -0.01     61.43   
    15. D(H   3,C   1,O   0,H   2)    180.00  0.000000   -0.00    180.00   
    ----------------------------------------------------------------------------

         *************************************************************
         *                GEOMETRY OPTIMIZATION CYCLE   3            *
         *************************************************************
---------------------------------
CARTESIAN COORDINATES (ANGSTROEM)
---------------------------------
  O      1.428833   -0.009968    0.000000
  C      0.007304    0.021376    0.000000
  H      1.748210    0.896472   -0.000000
  H     -0.326221   -1.011774   -0.000000
  H     -0.390733    0.513922    0.888229
  H     -0.390733    0.513922   -0.888229

----------------------------
CARTESIAN COORDINATES (A.U.)
----------------------------
  NO LB      ZA    FRAG     MASS         X           Y           Z
   0 O     8.0000    0    15.999    2.700103   -0.018837    0.000000
   1 C     6.0000    0    12.011    0.013802    0.040394    0.000000
   2 H     1.0000    0     1.008    3.303638    1.694086   -0.000000
   3 H     1.0000    0     1.008   -0.616469   -1.911976   -0.000000
   4 H     1.0000    0     1.008   -0.738378    0.971173    1.678510
   5 H     1.0000    0     1.008   -0.738378    0.971173   -1.678510

--------------------------------
INTERNAL COORDINATES (ANGSTROEM)
--------------------------------
 O      0   0   0     0.000000000000     0.00000000     0.00000000
 C      1   0   0     1.421874961876     0.00000000     0.00000000
 H      1   2   0     0.961059230065   108.14638402     0.00000000
 H      2   1   3     1.085650321432   106.62815931   180.00000000
[...]
      f-2     :     0.000639
      f+3     :     0.000964
      f-3     :     0.001200
  1 C s       :     3.254754  s :     3.254754
      pz      :     1.173191  p :     3.106953
      px      :     0.699495
      py      :     1.234267
      dz2     :     0.031639  d :     0.241672
      dxz     :     0.077171
      dyz     :     0.038700
      dx2y2   :     0.041994
      dxy     :     0.052168
      f0      :     0.003697  f :     0.022774
      f+1     :     0.002018
      f-1     :     0.002532
      f+2     :     0.004375
      f-2     :     0.002368
      f+3     :     0.001895
      f-3     :     0.005889
  2 H s       :     0.689192  s :     0.689192
      pz      :     0.049952  p :     0.098666
      px      :     0.042566
      py      :     0.006148
      dz2     :     0.000737  d :     0.023033
      dxz     :     0.001474
      dyz     :     0.008596
      dx2y2   :     0.005502
      dxy     :     0.006724
  3 H s       :     0.646576  s :     0.646576
      pz      :     0.004600  p :     0.031371
      px      :     0.004775
      py      :     0.021996
      dz2     :    -0.000994  d :     0.000671
      dxz     :     0.000427
      dyz     :     0.001924
      dx2y2   :    -0.000507
      dxy     :    -0.000180
  4 H s       :     0.659177  s :     0.659177
      pz      :     0.015598  p :     0.036271
      px      :     0.012660
      py      :     0.008012
      dz2     :     0.001337  d :     0.001547
      dxz     :    -0.000233
      dyz     :     0.000405
      dx2y2   :    -0.000156
      dxy     :     0.000194
  5 H s       :     0.659177  s :     0.659177
      pz      :     0.015598  p :     0.036271
      px      :     0.012660
      py      :     0.008012
      dz2     :     0.001337  d :     0.001547
      dxz     :    -0.000233
      dyz     :     0.000405
      dx2y2   :    -0.000156
      dxy     :     0.000194


                     *******************************
                     * LOEWDIN POPULATION ANALYSIS *
                     *******************************

----------------------
LOEWDIN ATOMIC CHARGES
----------------------
   0 O :    0.771992
   1 C :    0.320712
   2 H :   -0.510517
   3 H :   -0.199379
   4 H :   -0.191404
   5 H :   -0.191404

-------------------------------
LOEWDIN REDUCED ORBITAL CHARGES
-------------------------------
  0 O s       :     3.010432  s :     3.010432
      pz      :     1.432727  p :     3.863757
      px      :     1.167438
      py      :     1.263592
      dz2     :     0.031520  d :     0.285008
      dxz     :     0.070749
      dyz     :     0.007625
      dx2y2   :     0.076055
      dxy     :     0.099059
      f0      :     0.008408  f :     0.068811
      f+1     :     0.006546
      f-1     :     0.003753
      f+2     :     0.012943
      f-2     :     0.001537
      f+3     :     0.011419
      f-3     :     0.024206
  1 C s       :     2.472531  s :     2.472531
      pz      :     0.789610  p :     2.179518
      px      :     0.595331
      py      :     0.794577
      dz2     :     0.100266  d :     0.705988
      dxz     :     0.200044
      dyz     :     0.068269
      dx2y2   :     0.167569
      dxy     :     0.169840
      f0      :     0.039299  f :     0.321251
      f+1     :     0.042327
      f-1     :     0.020050
      f+2     :     0.061397
      f-2     :     0.012689
      f+3     :     0.050400
      f-3     :     0.095088
  2 H s       :     0.594939  s :     0.594939
      pz      :     0.159218  p :     0.545861
      px      :     0.135844
      py      :     0.250799
      dz2     :     0.033839  d :     0.369717
      dxz     :     0.017424
      dyz     :     0.108426
      dx2y2   :     0.119930
      dxy     :     0.090097
  3 H s       :     0.664203  s :     0.664203
      pz      :     0.089753  p :     0.308246
      px      :     0.066167
      py      :     0.152326
      dz2     :     0.016874  d :     0.226930
      dxz     :     0.008582
      dyz     :     0.086411
      dx2y2   :     0.066336
      dxy     :     0.048727
  4 H s       :     0.668228  s :     0.668228
      pz      :     0.136028  p :     0.305378
      px      :     0.064733
      py      :     0.104617
      dz2     :     0.076993  d :     0.217798
      dxz     :     0.034896
      dyz     :     0.049204
      dx2y2   :     0.040894
      dxy     :     0.015811
  5 H s       :     0.668228  s :     0.668228
      pz      :     0.136028  p :     0.305378
      px      :     0.064733
      py      :     0.104617
      dz2     :     0.076993  d :     0.217798
      dxz     :     0.034896
      dyz     :     0.049204
      dx2y2   :     0.040894
      dxy     :     0.015811


                      *****************************
                      * MAYER POPULATION ANALYSIS *
                      *****************************

  NA   - Mulliken gross atomic population
  ZA   - Total nuclear charge
  QA   - Mulliken gross atomic charge
  VA   - Mayer's total valence
  BVA  - Mayer's bonded valence
  FA   - Mayer's free valence

  ATOM       NA         ZA         QA         VA         BVA        FA
  0 O      8.4903     8.0000    -0.4903     2.1291     1.7239     0.4052
  1 C      6.6262     6.0000    -0.6262     3.6832     3.3988     0.2843
  2 H      0.8109     1.0000     0.1891     1.0450     0.9762     0.0689
  3 H      0.6786     1.0000     0.3214     0.9635     0.9170     0.0465
  4 H      0.6970     1.0000     0.3030     0.9945     0.9448     0.0497
  5 H      0.6970     1.0000     0.3030     0.9945     0.9448     0.0497

  Mayer bond orders larger than 0.100000
B(  0-O ,  1-C ) :   0.7626 B(  0-O ,  2-H ) :   0.9248 B(  1-C ,  3-H ) :   0.8674 
B(  1-C ,  4-H ) :   0.8616 B(  1-C ,  5-H ) :   0.8616 


                *******************************************
                * RELAXED MP2 DENSITY POPULATION ANALYSIS *
                *******************************************

------------------------------------------------------------------------------
                           ORCA POPULATION ANALYSIS
------------------------------------------------------------------------------
Input electron density              ... methanol_MP2_aug-cc-pVTZ_OPT.pmp2re
BaseName (.gbw .S,...)              ... methanol_MP2_aug-cc-pVTZ_OPT

                    ********************************
                    * MULLIKEN POPULATION ANALYSIS *
                    ********************************

-----------------------
MULLIKEN ATOMIC CHARGES
-----------------------
   0 O :   -0.448216
   1 C :   -0.728538
   2 H :    0.191409
   3 H :    0.345043
   4 H :    0.320151
   5 H :    0.320151
Sum of atomic charges:   -0.0000000

--------------------------------
MULLIKEN REDUCED ORBITAL CHARGES
--------------------------------
  0 O s       :     3.864124  s :     3.864124
      pz      :     1.862751  p :     4.518243
      px      :     1.299872
      py      :     1.355620
      dz2     :     0.008455  d :     0.059180
      dxz     :     0.011801
      dyz     :     0.007676
      dx2y2   :     0.018830
      dxy     :     0.012418
      f0      :     0.000879  f :     0.006669
      f+1     :     0.001208
      f-1     :     0.000896
      f+2     :     0.000860
      f-2     :     0.000648
      f+3     :     0.000919
      f-3     :     0.001259
  1 C s       :     3.299408  s :     3.299408
      pz      :     1.196149  p :     3.166587
      px      :     0.714023
      py      :     1.256415
      dz2     :     0.029239  d :     0.241213
      dxz     :     0.088599
      dyz     :     0.034212
      dx2y2   :     0.034897
      dxy     :     0.054266
      f0      :     0.003588  f :     0.021330
      f+1     :     0.001667
      f-1     :     0.002443
      f+2     :     0.004051
      f-2     :     0.002284
      f+3     :     0.001758
      f-3     :     0.005539
  2 H s       :     0.678357  s :     0.678357
      pz      :     0.057949  p :     0.109594
      px      :     0.043396
      py      :     0.008249
      dz2     :     0.000583  d :     0.020640
      dxz     :     0.001513
      dyz     :     0.007533
      dx2y2   :     0.004806
      dxy     :     0.006205
  3 H s       :     0.623142  s :     0.623142
      pz      :     0.007090  p :     0.031688
      px      :     0.002868
      py      :     0.021730
      dz2     :    -0.000987  d :     0.000128
      dxz     :     0.000368
      dyz     :     0.001877
      dx2y2   :    -0.000773
      dxy     :    -0.000357
  4 H s       :     0.643011  s :     0.643011
      pz      :     0.015573  p :     0.035721
      px      :     0.009823
      py      :     0.010325
      dz2     :     0.001258  d :     0.001116
      dxz     :    -0.000343
      dyz     :     0.000361
      dx2y2   :    -0.000307
      dxy     :     0.000148
  5 H s       :     0.643011  s :     0.643011
      pz      :     0.015573  p :     0.035721
      px      :     0.009823
      py      :     0.010325
      dz2     :     0.001258  d :     0.001116
      dxz     :    -0.000343
      dyz     :     0.000361
      dx2y2   :    -0.000307
      dxy     :     0.000148


                     *******************************
                     * LOEWDIN POPULATION ANALYSIS *
                     *******************************

----------------------
LOEWDIN ATOMIC CHARGES
----------------------
   0 O :    0.788520
   1 C :    0.303278
   2 H :   -0.511288
   3 H :   -0.198458
   4 H :   -0.191026
   5 H :   -0.191026

-------------------------------
LOEWDIN REDUCED ORBITAL CHARGES
-------------------------------
  0 O s       :     3.013682  s :     3.013682
      pz      :     1.414825  p :     3.842176
      px      :     1.164778
      py      :     1.262573
      dz2     :     0.031375  d :     0.286024
      dxz     :     0.072684
      dyz     :     0.007297
      dx2y2   :     0.074607
      dxy     :     0.100060
      f0      :     0.008486  f :     0.069599
      f+1     :     0.006632
      f-1     :     0.003806
      f+2     :     0.013191
      f-2     :     0.001456
      f+3     :     0.011565
      f-3     :     0.024462
  1 C s       :     2.477188  s :     2.477188
      pz      :     0.800208  p :     2.203272
      px      :     0.599417
      py      :     0.803647
      dz2     :     0.095763  d :     0.702358
      dxz     :     0.207619
      dyz     :     0.064390
      dx2y2   :     0.163388
      dxy     :     0.171198
      f0      :     0.038116  f :     0.313904
      f+1     :     0.041778
      f-1     :     0.019560
      f+2     :     0.059197
      f-2     :     0.012474
      f+3     :     0.049777
      f-3     :     0.093001
  2 H s       :     0.589255  s :     0.589255
      pz      :     0.168556  p :     0.560344
      px      :     0.136856
      py      :     0.254932
      dz2     :     0.033511  d :     0.361689
      dxz     :     0.017268
      dyz     :     0.104312
      dx2y2   :     0.118238
      dxy     :     0.088360
  3 H s       :     0.657995  s :     0.657995
      pz      :     0.092426  p :     0.313005
      px      :     0.067964
      py      :     0.152614
      dz2     :     0.016806  d :     0.227458
      dxz     :     0.009411
      dyz     :     0.086037
      dx2y2   :     0.066147
      dxy     :     0.049057
  4 H s       :     0.661657  s :     0.661657
      pz      :     0.136949  p :     0.311559
      px      :     0.067969
      py      :     0.106642
      dz2     :     0.076642  d :     0.217810
      dxz     :     0.035456
      dyz     :     0.049189
      dx2y2   :     0.040389
      dxy     :     0.016134
  5 H s       :     0.661657  s :     0.661657
      pz      :     0.136949  p :     0.311559
      px      :     0.067969
      py      :     0.106642
      dz2     :     0.076642  d :     0.217810
      dxz     :     0.035456
      dyz     :     0.049189
      dx2y2   :     0.040389
      dxy     :     0.016134


                      *****************************
                      * MAYER POPULATION ANALYSIS *
                      *****************************

  NA   - Mulliken gross atomic population
  ZA   - Total nuclear charge
  QA   - Mulliken gross atomic charge
  VA   - Mayer's total valence
  BVA  - Mayer's bonded valence
  FA   - Mayer's free valence

  ATOM       NA         ZA         QA         VA         BVA        FA
  0 O      8.4482     8.0000    -0.4482     2.1983     1.8016     0.3967
  1 C      6.7285     6.0000    -0.7285     3.7297     3.4479     0.2818
  2 H      0.8086     1.0000     0.1914     1.0568     0.9889     0.0679
  3 H      0.6550     1.0000     0.3450     0.9394     0.8934     0.0460
  4 H      0.6798     1.0000     0.3202     0.9740     0.9246     0.0493
  5 H      0.6798     1.0000     0.3202     0.9740     0.9246     0.0493

  Mayer bond orders larger than 0.100000
B(  0-O ,  1-C ) :   0.8545 B(  0-O ,  2-H ) :   0.9301 B(  1-C ,  3-H ) :   0.8495 
B(  1-C ,  4-H ) :   0.8461 B(  1-C ,  5-H ) :   0.8461 


----------------------------------
MP2 DERIVATIVE INTEGRAL GENERATION
----------------------------------


Input Wavefunction Amplitudes       ... methanol_MP2_aug-cc-pVTZ_OPT.mp2tsaa.tmp
Input Correlated Electron Density   ... methanol_MP2_aug-cc-pVTZ_OPT.pmp2re
Input Energy Weighted Density       ... methanol_MP2_aug-cc-pVTZ_OPT.wmp2.tmp
Input SCF Electron Density          ... methanol_MP2_aug-cc-pVTZ_OPT.scfp

One-Electron Terms    ...
                        ... One-Electron Terms done
Prescreening matrices              ... done

Batch handling in the gradient evaluation:
Memory available                      ... 1000.0 MB
Memory per occupied orbital in Q2     ...    1.8 MB
Memory per occupied orbital in Q3     ...    0.1 MB
Total memory requirement per |i>      ...    1.9 MB
Max. Number of orbitals possible      ...    532
Number of orbitals treated per batch  ...      7
Number of batches to be done          ...      1
Batch   0: i=    2 ...     8

---------------------------------------
MP2 TOTAL ENERGY:     -115.529007918 Eh
---------------------------------------

-----------------------------------
NORM OF THE MP2 GRADIENT:  0.000051
-----------------------------------

-------------------------   --------------------
FINAL SINGLE POINT ENERGY      -115.529007917933
-------------------------   --------------------

                                *** OPTIMIZATION RUN DONE ***

                            ***************************************
                            *     ORCA property calculations      *
                            ***************************************

                                    ---------------------
                                    Active property flags
                                    ---------------------
   (+) Dipole Moment


------------------------------------------------------------------------------
                       ORCA ELECTRIC PROPERTIES CALCULATION
------------------------------------------------------------------------------

Dipole Moment Calculation                       ... on
Quadrupole Moment Calculation                   ... off
Polarizability Calculation                      ... off
GBWName                                         ... methanol_MP2_aug-cc-pVTZ_OPT.gbw
Electron density file                           ... methanol_MP2_aug-cc-pVTZ_OPT.scfp
The origin for moment calculation is the CENTER OF MASS  = ( 1.391155,  0.059610  0.000000)

-------------
DIPOLE MOMENT
-------------
                                X             Y             Z
Electronic contribution:      1.73257      -0.15987       0.00000
Nuclear contribution   :     -2.15084       0.73754      -0.00000
                        -----------------------------------------
Total Dipole Moment    :     -0.41827       0.57767      -0.00000
                        -----------------------------------------
Magnitude (a.u.)       :      0.71320
Magnitude (Debye)      :      1.81281



--------------------
Rotational spectrum 
--------------------
 
Rotational constants in cm-1:     4.289524     0.825349     0.796442 
Rotational constants in MHz : 128596.688597 24743.347404 23876.737183 

 Dipole components along the rotational axes: 
x,y,z [a.u.] :     0.399522     0.590793    -0.000000 
x,y,z [Debye]:     1.015504     1.501675    -0.000000 

 

                         *** MP2 UNRELAXED DENSITY ***

------------------------------------------------------------------------------
                       ORCA ELECTRIC PROPERTIES CALCULATION
------------------------------------------------------------------------------

Dipole Moment Calculation                       ... on
Quadrupole Moment Calculation                   ... off
Polarizability Calculation                      ... off
GBWName                                         ... methanol_MP2_aug-cc-pVTZ_OPT.gbw
Electron density file                           ... methanol_MP2_aug-cc-pVTZ_OPT.pmp2ur
The origin for moment calculation is the CENTER OF MASS  = ( 1.391155,  0.059610  0.000000)

-------------
DIPOLE MOMENT
-------------
                                X             Y             Z
Electronic contribution:      1.74519      -0.17265       0.00000
Nuclear contribution   :     -2.15084       0.73754      -0.00000
                        -----------------------------------------
Total Dipole Moment    :     -0.40565       0.56489      -0.00000
                        -----------------------------------------
Magnitude (a.u.)       :      0.69545
Magnitude (Debye)      :      1.76770



--------------------
Rotational spectrum 
--------------------
 
Rotational constants in cm-1:     4.289524     0.825349     0.796442 
Rotational constants in MHz : 128596.688597 24743.347404 23876.737183 

 Dipole components along the rotational axes: 
x,y,z [a.u.] :     0.387320     0.577616    -0.000000 
x,y,z [Debye]:     0.984489     1.468182    -0.000000 

 

                           *** MP2 RELAXED DENSITY ***

------------------------------------------------------------------------------
                       ORCA ELECTRIC PROPERTIES CALCULATION
------------------------------------------------------------------------------

Dipole Moment Calculation                       ... on
Quadrupole Moment Calculation                   ... off
Polarizability Calculation                      ... off
GBWName                                         ... methanol_MP2_aug-cc-pVTZ_OPT.gbw
Electron density file                           ... methanol_MP2_aug-cc-pVTZ_OPT.pmp2re
The origin for moment calculation is the CENTER OF MASS  = ( 1.391155,  0.059610  0.000000)

-------------
DIPOLE MOMENT
-------------
                                X             Y             Z
Electronic contribution:      1.75816      -0.19410       0.00000
Nuclear contribution   :     -2.15084       0.73754      -0.00000
                        -----------------------------------------
Total Dipole Moment    :     -0.39267       0.54345      -0.00000
                        -----------------------------------------
Magnitude (a.u.)       :      0.67047
Magnitude (Debye)      :      1.70420



--------------------
Rotational spectrum 
--------------------
 
Rotational constants in cm-1:     4.289524     0.825349     0.796442 
Rotational constants in MHz : 128596.688597 24743.347404 23876.737183 

 Dipole components along the rotational axes: 
x,y,z [a.u.] :     0.375040     0.555764    -0.000000 
x,y,z [Debye]:     0.953276     1.412640    -0.000000 

 

Timings for individual modules:

Sum of individual times         ...      207.726 sec (=   3.462 min)
GTO integral calculation        ...        1.786 sec (=   0.030 min)   0.9 %
SCF iterations                  ...       45.244 sec (=   0.754 min)  21.8 %
MP2 module                      ...      160.603 sec (=   2.677 min)  77.3 %
Geometry relaxation             ...        0.093 sec (=   0.002 min)   0.0 %
                             ****ORCA TERMINATED NORMALLY****
TOTAL RUN TIME: 0 days 0 hours 3 minutes 28 seconds 104 msec
