
                                 *****************
                                 * O   R   C   A *
                                 *****************

                                            #,                                       
                                            ###                                      
                                            ####                                     
                                            #####                                    
                                            ######                                   
                                           ########,                                 
                                     ,,################,,,,,                         
                               ,,#################################,,                 
                          ,,##########################################,,             
                       ,#########################################, ''#####,          
                    ,#############################################,,   '####,        
                  ,##################################################,,,,####,       
                ,###########''''           ''''###############################       
              ,#####''   ,,,,##########,,,,          '''####'''          '####       
            ,##' ,,,,###########################,,,                        '##       
           ' ,,###''''                  '''############,,,                           
         ,,##''                                '''############,,,,        ,,,,,,###''
      ,#''                                            '''#######################'''  
     '                                                          ''''####''''         
             ,#######,   #######,   ,#######,      ##                                
            ,#'     '#,  ##    ##  ,#'     '#,    #''#        ######   ,####,        
            ##       ##  ##   ,#'  ##            #'  '#       #        #'  '#        
            ##       ##  #######   ##           ,######,      #####,   #    #        
            '#,     ,#'  ##    ##  '#,     ,#' ,#      #,         ##   #,  ,#        
             '#######'   ##     ##  '#######'  #'      '#     #####' # '####'        



                  #######################################################
                  #                        -***-                        #
                  #          Department of theory and spectroscopy      #
                  #    Directorship and core code : Frank Neese         #
                  #        Max Planck Institute fuer Kohlenforschung    #
                  #                Kaiser Wilhelm Platz 1               #
                  #                 D-45470 Muelheim/Ruhr               #
                  #                      Germany                        #
                  #                                                     #
                  #                  All rights reserved                #
                  #                        -***-                        #
                  #######################################################


                         Program Version 5.0.1 -  RELEASE  -


 With contributions from (in alphabetic order):
   Daniel Aravena         : Magnetic Suceptibility
   Michael Atanasov       : Ab Initio Ligand Field Theory (pilot matlab implementation)
   Alexander A. Auer      : GIAO ZORA, VPT2 properties, NMR spectrum
   Ute Becker             : Parallelization
   Giovanni Bistoni       : ED, misc. LED, open-shell LED, HFLD
   Martin Brehm           : Molecular dynamics
   Dmytro Bykov           : SCF Hessian
   Vijay G. Chilkuri      : MRCI spin determinant printing, contributions to CSF-ICE
   Dipayan Datta          : RHF DLPNO-CCSD density
   Achintya Kumar Dutta   : EOM-CC, STEOM-CC
   Dmitry Ganyushin       : Spin-Orbit,Spin-Spin,Magnetic field MRCI
   Miquel Garcia          : C-PCM and meta-GGA Hessian, CC/C-PCM, Gaussian charge scheme
   Yang Guo               : DLPNO-NEVPT2, F12-NEVPT2, CIM, IAO-localization
   Andreas Hansen         : Spin unrestricted coupled pair/coupled cluster methods
   Benjamin Helmich-Paris : MC-RPA, TRAH-SCF, COSX integrals
   Lee Huntington         : MR-EOM, pCC
   Robert Izsak           : Overlap fitted RIJCOSX, COSX-SCS-MP3, EOM
   Marcus Kettner         : VPT2
   Christian Kollmar      : KDIIS, OOCD, Brueckner-CCSD(T), CCSD density, CASPT2, CASPT2-K
   Simone Kossmann        : Meta GGA functionals, TD-DFT gradient, OOMP2, MP2 Hessian
   Martin Krupicka        : Initial AUTO-CI
   Lucas Lang             : DCDCAS
   Marvin Lechner         : AUTO-CI (C++ implementation), FIC-MRCC
   Dagmar Lenk            : GEPOL surface, SMD
   Dimitrios Liakos       : Extrapolation schemes; Compound Job, initial MDCI parallelization
   Dimitrios Manganas     : Further ROCIS development; embedding schemes
   Dimitrios Pantazis     : SARC Basis sets
   Anastasios Papadopoulos: AUTO-CI, single reference methods and gradients
   Taras Petrenko         : DFT Hessian,TD-DFT gradient, ASA, ECA, R-Raman, ABS, FL, XAS/XES, NRVS
   Peter Pinski           : DLPNO-MP2, DLPNO-MP2 Gradient
   Christoph Reimann      : Effective Core Potentials
   Marius Retegan         : Local ZFS, SOC
   Christoph Riplinger    : Optimizer, TS searches, QM/MM, DLPNO-CCSD(T), (RO)-DLPNO pert. Triples
   Tobias Risthaus        : Range-separated hybrids, TD-DFT gradient, RPA, STAB
   Michael Roemelt        : Original ROCIS implementation
   Masaaki Saitow         : Open-shell DLPNO-CCSD energy and density
   Barbara Sandhoefer     : DKH picture change effects
   Avijit Sen             : IP-ROCIS
   Kantharuban Sivalingam : CASSCF convergence, NEVPT2, FIC-MRCI
   Bernardo de Souza      : ESD, SOC TD-DFT
   Georgi Stoychev        : AutoAux, RI-MP2 NMR, DLPNO-MP2 response
   Willem Van den Heuvel  : Paramagnetic NMR
   Boris Wezisla          : Elementary symmetry handling
   Frank Wennmohs         : Technical directorship


 We gratefully acknowledge several colleagues who have allowed us to
 interface, adapt or use parts of their codes:
   Stefan Grimme, W. Hujo, H. Kruse, P. Pracht,  : VdW corrections, initial TS optimization,
                  C. Bannwarth, S. Ehlert          DFT functionals, gCP, sTDA/sTD-DF
   Ed Valeev, F. Pavosevic, A. Kumar             : LibInt (2-el integral package), F12 methods
   Garnet Chan, S. Sharma, J. Yang, R. Olivares  : DMRG
   Ulf Ekstrom                                   : XCFun DFT Library
   Mihaly Kallay                                 : mrcc  (arbitrary order and MRCC methods)
   Jiri Pittner, Ondrej Demel                    : Mk-CCSD
   Frank Weinhold                                : gennbo (NPA and NBO analysis)
   Christopher J. Cramer and Donald G. Truhlar   : smd solvation model
   Lars Goerigk                                  : TD-DFT with DH, B97 family of functionals
   V. Asgeirsson, H. Jonsson                     : NEB implementation
   FAccTs GmbH                                   : IRC, NEB, NEB-TS, DLPNO-Multilevel, CI-OPT
                                                   MM, QMMM, 2- and 3-layer-ONIOM, Crystal-QMMM,
                                                   LR-CPCM, SF, NACMEs, symmetry and pop. for TD-DFT,
                                                   nearIR, NL-DFT gradient (VV10), updates on ESD,
                                                   ML-optimized integration grids
   S Lehtola, MJT Oliveira, MAL Marques          : LibXC Library
   Liviu Ungur et al                             : ANISO software


 Your calculation uses the libint2 library for the computation of 2-el integrals
 For citations please refer to: http://libint.valeyev.net

 Your ORCA version has been built with support for libXC version: 5.1.0
 For citations please refer to: https://tddft.org/programs/libxc/

 This ORCA versions uses:
   CBLAS   interface :  Fast vector & matrix operations
   LAPACKE interface :  Fast linear algebra routines
   SCALAPACK package :  Parallel linear algebra routines
   Shared memory     :  Shared parallel matrices
   BLAS/LAPACK       :  OpenBLAS 0.3.15  USE64BITINT DYNAMIC_ARCH NO_AFFINITY Zen SINGLE_THREADED
        Core in use  :  Zen
   Copyright (c) 2011-2014, The OpenBLAS Project




***************************************
The coordinates will be read from file: phosphine.xyz
***************************************


================================================================================

----- Orbital basis set information -----
Your calculation utilizes the basis: aug-cc-pVTZ 
    H, B-Ne : Obtained from the ccRepo (grant-hill.group.shef.ac.uk/ccrepo) Feb. 2017
              R. A. Kendall, T. H. Dunning, Jr., R. J. Harrison, J. Chem. Phys. 96, 6796 (1992)
         He : Obtained from the ccRepo (grant-hill.group.shef.ac.uk/ccrepo) Feb. 2017
              D. E. Woon, T. H. Dunning, Jr., J. Chem. Phys. 100, 2975 (1994)
  Li-Be, Na : Obtained from the ccRepo (grant-hill.group.shef.ac.uk/ccrepo) Feb. 2017
              B. P. Prascher, D. E. Woon, K. A. Peterson, T. H. Dunning, Jr., A. K. Wilson, Theor. Chem. Acc. 128, 69 (2011)
         Mg : Obtained from the Peterson Research Group Website (tyr0.chem.wsu.edu/~kipeters) Feb. 2017
              B. P. Prascher, D. E. Woon, K. A. Peterson, T. H. Dunning, Jr., A. K. Wilson, Theor. Chem. Acc. 128, 69 (2011)
      Al-Ar : Obtained from the ccRepo (grant-hill.group.shef.ac.uk/ccrepo) Feb. 2017
              D. E. Woon, T. H. Dunning, Jr., J. Chem. Phys. 98, 1358 (1993)
      Sc-Zn : Obtained from the ccRepo (grant-hill.group.shef.ac.uk/ccrepo) Feb. 2017
              N. B. Balabanov, K. A. Peterson, J. Chem. Phys. 123, 064107 (2005)
              N. B. Balabanov, K. A. Peterson, J. Chem. Phys. 125, 074110 (2006)
      Ga-Kr : Obtained from the ccRepo (grant-hill.group.shef.ac.uk/ccrepo) Feb. 2017
              A. K. Wilson, D. E. Woon, K. A. Peterson, T. H. Dunning, Jr., J. Chem. Phys. 110, 7667 (1999)
     Ag, Au : Obtained from the Peterson Research Group Website (tyr0.chem.wsu.edu/~kipeters) Feb. 2017
              K. A. Peterson, C. Puzzarini, Theor. Chem. Acc. 114, 283 (2005)

----- AuxJ basis set information -----
Your calculation utilizes the auxiliary basis: def2/J
   F. Weigend, Phys. Chem. Chem. Phys. 8, 1057 (2006).

----- AuxC basis set information -----
Your calculation utilizes the auxiliary basis: aug-cc-pVTZ/C 
  H-He, B-F, Al-Ar, Ga-Kr : Obtained from the EMSL Basis Set Exchange (bse.pnl.gov) Feb. 2017
                            F. Weigend, A. Kohn, C. Hattig, J. Chem. Phys. 116, 3175 (2002)
                   Be, Mg : Obtained from the TURBOMOLE 7.0 basis set library
                            C. Haettig, Phys. Chem. Chem. Phys. 7, 59 (2005)
                       Ne : Obtained from the EMSL Basis Set Exchange (bse.pnl.gov) Feb. 2017
                            C. Haettig, Phys. Chem. Chem. Phys. 7, 59 (2005)
                            F. Weigend, A. Kohn, C. Hattig, J. Chem. Phys. 116, 3175 (2002)
                    Sc-Zn : Obtained from the EMSL Basis Set Exchange (bse.pnl.gov) Feb. 2017
                            J. G. Hill, J. A. Platts, J. Chem. Phys. 128, 044104 (2008)

================================================================================
                                        WARNINGS
                       Please study these warnings very carefully!
================================================================================


WARNING: Post HF methods need fully converged wavefunctions
  ===> : Setting SCFConvForced true
         You can overwrite this default with %scf ConvForced false 


WARNING: MDCI localization with Augmented Hessian Foster-Boys
  ===> : Switching off randomization!

INFO   : the flag for use of the SHARK integral package has been found!

================================================================================
                                       INPUT FILE
================================================================================
NAME = phosphine_DLPNO_CCSD.inp
|  1> 
|  2> %pal
|  3>   nprocs 6
|  4> end
|  5> %maxcore 2000
|  6> 
|  7> ! DLPNO-CCSD aug-cc-pVTZ VeryTightSCF
|  8> ! RIJCOSX def2/J aug-cc-pVTZ/C
|  9> ! TightPNO
| 10> 
| 11> %mdci
| 12>   density unrelaxed
| 13> end
| 14> 
| 15> * xyzfile 0 1 phosphine.xyz
| 16> 
| 17> 
| 18>                          ****END OF INPUT****
================================================================================

                       ****************************
                       * Single Point Calculation *
                       ****************************

---------------------------------
CARTESIAN COORDINATES (ANGSTROEM)
---------------------------------
  P     -0.092768   -0.131096    0.227150
  H     -0.395501    1.225554   -0.061679
  H     -0.395627   -0.559549   -1.091980
  H      1.287226    0.035481   -0.061462

----------------------------
CARTESIAN COORDINATES (A.U.)
----------------------------
  NO LB      ZA    FRAG     MASS         X           Y           Z
   0 P    15.0000    0    30.974   -0.175307   -0.247736    0.429252
   1 H     1.0000    0     1.008   -0.747389    2.315962   -0.116556
   2 H     1.0000    0     1.008   -0.747626   -1.057395   -2.063543
   3 H     1.0000    0     1.008    2.432505    0.067050   -0.116145

--------------------------------
INTERNAL COORDINATES (ANGSTROEM)
--------------------------------
 P      0   0   0     0.000000000000     0.00000000     0.00000000
 H      1   0   0     1.419707867253     0.00000000     0.00000000
 H      1   2   0     1.419647753805    93.08798799     0.00000000
 H      1   2   3     1.419658125614    93.08366703    93.26453425

---------------------------
INTERNAL COORDINATES (A.U.)
---------------------------
 P      0   0   0     0.000000000000     0.00000000     0.00000000
 H      1   0   0     2.682859059282     0.00000000     0.00000000
 H      1   2   0     2.682745461328    93.08798799     0.00000000
 H      1   2   3     2.682765061206    93.08366703    93.26453425

---------------------
BASIS SET INFORMATION
---------------------
There are 2 groups of distinct atoms

 Group   1 Type P   : 42s17p3d2f contracted to 6s5p3d2f pattern {131313111/77111/111/11}
 Group   2 Type H   : 6s3p2d contracted to 4s3p2d pattern {3111/111/11}

Atom   0P    basis set group =>   1
Atom   1H    basis set group =>   2
Atom   2H    basis set group =>   2
Atom   3H    basis set group =>   2
---------------------------------
AUXILIARY/J BASIS SET INFORMATION
---------------------------------
There are 2 groups of distinct atoms

 Group   1 Type P   : 14s5p5d2f1g contracted to 8s4p3d1f1g pattern {71111111/2111/311/2/1}
 Group   2 Type H   : 5s2p1d contracted to 3s1p1d pattern {311/2/1}

Atom   0P    basis set group =>   1
Atom   1H    basis set group =>   2
Atom   2H    basis set group =>   2
Atom   3H    basis set group =>   2
---------------------------------
AUXILIARY/C BASIS SET INFORMATION
---------------------------------
There are 2 groups of distinct atoms

 Group   1 Type P   : 11s9p8d6f3g contracted to 11s9p8d6f3g pattern {11111111111/111111111/11111111/111111/111}
 Group   2 Type H   : 5s4p3d2f contracted to 5s4p3d2f pattern {11111/1111/111/11}

Atom   0P    basis set group =>   1
Atom   1H    basis set group =>   2
Atom   2H    basis set group =>   2
Atom   3H    basis set group =>   2


           ************************************************************
           *        Program running with 6 parallel MPI-processes     *
           *              working on a common directory               *
           ************************************************************
------------------------------------------------------------------------------
                           ORCA GTO INTEGRAL CALCULATION
                           -- RI-GTO INTEGRALS CHOSEN --
------------------------------------------------------------------------------
------------------------------------------------------------------------------
                   ___                                                        
                  /   \      - P O W E R E D   B Y -                         
                 /     \                                                     
                 |  |  |   _    _      __       _____    __    __             
                 |  |  |  | |  | |    /  \     |  _  \  |  |  /  |          
                  \  \/   | |  | |   /    \    | | | |  |  | /  /          
                 / \  \   | |__| |  /  /\  \   | |_| |  |  |/  /          
                |  |  |   |  __  | /  /__\  \  |    /   |      \           
                |  |  |   | |  | | |   __   |  |    \   |  |\   \          
                \     /   | |  | | |  |  |  |  | |\  \  |  | \   \       
                 \___/    |_|  |_| |__|  |__|  |_| \__\ |__|  \__/        
                                                                              
                      - O R C A' S   B I G   F R I E N D -                    
                                      &                                       
                       - I N T E G R A L  F E E D E R -                       
                                                                              
 v1 FN, 2020, v2 2021                                                         
------------------------------------------------------------------------------


Reading SHARK input file phosphine_DLPNO_CCSD.SHARKINP.tmp ... ok
----------------------
SHARK INTEGRAL PACKAGE
----------------------

Number of atoms                             ...      4
Number of basis functions                   ...    119
Number of shells                            ...     43
Maximum angular momentum                    ...      3
Integral batch strategy                     ... SHARK/LIBINT Hybrid
RI-J (if used) integral strategy            ... SPLIT-RIJ (Revised 2003 algorithm where possible)
Printlevel                                  ...      1
Contraction scheme used                     ... SEGMENTED contraction
Coulomb Range Separation                    ... NOT USED
Exchange Range Separation                   ... NOT USED
Finite Nucleus Model                        ... NOT USED
Auxiliary Coulomb fitting basis             ... AVAILABLE
   # of basis functions in Aux-J            ...     84
   # of shells in Aux-J                     ...     32
   Maximum angular momentum in Aux-J        ...      4
Auxiliary J/K fitting basis                 ... NOT available
Auxiliary Correlation fitting basis         ... AVAILABLE
   # of basis functions in Aux-C            ...    285
   # of shells in Aux-C                     ...     79
   Maximum angular momentum in Aux-C        ...      4
Auxiliary 'external' fitting basis          ... NOT available
Integral threshold                          ...     1.000000e-12
Primitive cut-off                           ...     1.000000e-14
Primitive pair pre-selection threshold      ...     1.000000e-14

Calculating pre-screening integrals         ... done (  0.1 sec) Dimension = 43
Organizing shell pair data                  ... done (  0.0 sec)
Shell pair information
Total number of shell pairs                 ...       946
Shell pairs after pre-screening             ...       946
Total number of primitive shell pairs       ...      5038
Primitive shell pairs kept                  ...      4846
          la=0 lb=0:    171 shell pairs
          la=1 lb=0:    252 shell pairs
          la=1 lb=1:    105 shell pairs
          la=2 lb=0:    162 shell pairs
          la=2 lb=1:    126 shell pairs
          la=2 lb=2:     45 shell pairs
          la=3 lb=0:     36 shell pairs
          la=3 lb=1:     28 shell pairs
          la=3 lb=2:     18 shell pairs
          la=3 lb=3:      3 shell pairs

Calculating one electron integrals          ... done (  0.0 sec)
Calculating RI/J V-Matrix + Cholesky decomp.... done (  0.0 sec)
Calculating RI/C V-Matrix + Cholesky decomp.... done (  0.0 sec)
Calculating Nuclear repulsion               ... done (  0.0 sec) ENN=     17.543831321688 Eh

SHARK setup successfully completed in   0.1 seconds

Maximum memory used throughout the entire GTOINT-calculation: 47.9 MB


           ************************************************************
           *        Program running with 6 parallel MPI-processes     *
           *              working on a common directory               *
           ************************************************************
-------------------------------------------------------------------------------
                                 ORCA SCF
-------------------------------------------------------------------------------

------------
SCF SETTINGS
------------
Hamiltonian:
 Ab initio Hamiltonian  Method          .... Hartree-Fock(GTOs)
 RI-approximation to the Coulomb term is turned on
   Number of AuxJ basis functions       .... 84
   RIJ-COSX (HFX calculated with COS-X)).... on


General Settings:
 Integral files         IntName         .... phosphine_DLPNO_CCSD
 Hartree-Fock type      HFTyp           .... RHF
 Total Charge           Charge          ....    0
 Multiplicity           Mult            ....    1
 Number of Electrons    NEL             ....   18
 Basis Dimension        Dim             ....  119
 Nuclear Repulsion      ENuc            ....     17.5438313217 Eh

Convergence Acceleration:
 DIIS                   CNVDIIS         .... on
   Start iteration      DIISMaxIt       ....    12
   Startup error        DIISStart       ....  0.200000
   # of expansion vecs  DIISMaxEq       ....     5
   Bias factor          DIISBfac        ....   1.050
   Max. coefficient     DIISMaxC        ....  10.000
 Trust-Rad. Augm. Hess. CNVTRAH         .... auto
   Auto Start mean grad. ratio tolernc. ....  1.125000
   Auto Start start iteration           ....    20
   Auto Start num. interpolation iter.  ....    10
   Max. Number of Micro iterations      ....    16
   Max. Number of Macro iterations      .... Maxiter - #DIIS iter
   Number of Davidson start vectors     ....     2
   Converg. threshold I  (grad. norm)   ....   2.000e-06
   Converg. threshold II (energy diff.) ....   1.000e-09
   Grad. Scal. Fac. for Micro threshold ....   0.100
   Minimum threshold for Micro iter.    ....   0.010
   NR start threshold (gradient norm)   ....   0.001
   Initial trust radius                 ....   0.400
   Minimum AH scaling param. (alpha)    ....   1.000
   Maximum AH scaling param. (alpha)    .... 1000.000
   Orbital update algorithm             .... Taylor
   White noise on init. David. guess    .... on
   Maximum white noise                  ....   0.010
   Quad. conv. algorithm                .... NR
 SOSCF                  CNVSOSCF        .... on
   Start iteration      SOSCFMaxIt      ....   150
   Startup grad/error   SOSCFStart      ....  0.003300
 Level Shifting         CNVShift        .... on
   Level shift para.    LevelShift      ....    0.2500
   Turn off err/grad.   ShiftErr        ....    0.0010
 Zerner damping         CNVZerner       .... off
 Static damping         CNVDamp         .... on
   Fraction old density DampFac         ....    0.7000
   Max. Damping (<1)    DampMax         ....    0.9800
   Min. Damping (>=0)   DampMin         ....    0.0000
   Turn off err/grad.   DampErr         ....    0.1000
 Fernandez-Rico         CNVRico         .... off

SCF Procedure:
 Maximum # iterations   MaxIter         ....   125
 SCF integral mode      SCFMode         .... Direct
   Integral package                     .... SHARK and LIBINT hybrid scheme
 Reset frequency        DirectResetFreq ....    20
 Integral Threshold     Thresh          ....  1.000e-12 Eh
 Primitive CutOff       TCut            ....  1.000e-14 Eh

Convergence Tolerance:
 Convergence Check Mode ConvCheckMode   .... Total+1el-Energy
 Convergence forced     ConvForced      .... 1
 Energy Change          TolE            ....  1.000e-09 Eh
 1-El. energy change                    ....  1.000e-06 Eh
 Orbital Gradient       TolG            ....  2.000e-06
 Orbital Rotation angle TolX            ....  2.000e-06
 DIIS Error             TolErr          ....  1.000e-08


Diagonalization of the overlap matrix:
Smallest eigenvalue                        ... 1.959e-04
Time for diagonalization                   ...    0.002 sec
Threshold for overlap eigenvalues          ... 1.000e-08
Number of eigenvalues below threshold      ... 0
Time for construction of square roots      ...    0.001 sec
Total time needed                          ...    0.002 sec

Time for model grid setup =    0.011 sec

------------------------------
INITIAL GUESS: MODEL POTENTIAL
------------------------------
Loading Hartree-Fock densities                     ... done
Calculating cut-offs                               ... done
Initializing the effective Hamiltonian             ... done
Setting up the integral package (SHARK)            ... done
Starting the Coulomb interaction                   ... done (   0.0 sec)
Reading the grid                                   ... done
Mapping shells                                     ... done
Starting the XC term evaluation                    ... done (   0.0 sec)
Transforming the Hamiltonian                       ... done (   0.0 sec)
Diagonalizing the Hamiltonian                      ... done (   0.0 sec)
Back transforming the eigenvectors                 ... done (   0.0 sec)
Now organizing SCF variables                       ... done
                      ------------------
                      INITIAL GUESS DONE (   0.0 sec)
                      ------------------
--------------------
COSX GRID GENERATION
--------------------

GRIDX 1
-------
General Integration Accuracy     IntAcc      ... 3.816
Radial Grid Type                 RadialGrid  ... OptM3 with GC (2021)
Angular Grid (max. ang.)         AngularGrid ... 1 (Lebedev-50)
Angular grid pruning method      GridPruning ... 4 (adaptive)
Weight generation scheme         WeightScheme... Becke
Basis function cutoff            BFCut       ... 1.0000e-12
Integration weight cutoff        WCut        ... 1.0000e-14
Angular grids for H and He will be reduced by one unit
Partially contracted basis set               ... on
Rotationally invariant grid construction     ... off

Total number of grid points                  ...     2198
Total number of batches                      ...       35
Average number of points per batch           ...       62
Average number of grid points per atom       ...      550
UseSFitting                                  ... on

GRIDX 2
-------
General Integration Accuracy     IntAcc      ... 4.020
Radial Grid Type                 RadialGrid  ... OptM3 with GC (2021)
Angular Grid (max. ang.)         AngularGrid ... 2 (Lebedev-110)
Angular grid pruning method      GridPruning ... 4 (adaptive)
Weight generation scheme         WeightScheme... Becke
Basis function cutoff            BFCut       ... 1.0000e-12
Integration weight cutoff        WCut        ... 1.0000e-14
Angular grids for H and He will be reduced by one unit
Partially contracted basis set               ... on
Rotationally invariant grid construction     ... off

Total number of grid points                  ...     4959
Total number of batches                      ...       79
Average number of points per batch           ...       62
Average number of grid points per atom       ...     1240
UseSFitting                                  ... on

GRIDX 3
-------
General Integration Accuracy     IntAcc      ... 4.338
Radial Grid Type                 RadialGrid  ... OptM3 with GC (2021)
Angular Grid (max. ang.)         AngularGrid ... 3 (Lebedev-194)
Angular grid pruning method      GridPruning ... 4 (adaptive)
Weight generation scheme         WeightScheme... Becke
Basis function cutoff            BFCut       ... 1.0000e-12
Integration weight cutoff        WCut        ... 1.0000e-14
Angular grids for H and He will be reduced by one unit
Partially contracted basis set               ... on
Rotationally invariant grid construction     ... off

Total number of grid points                  ...    12387
Total number of batches                      ...      195
Average number of points per batch           ...       63
Average number of grid points per atom       ...     3097
UseSFitting                                  ... on

Time for X-Grid setup             =    0.053 sec

 re-compute Schwartz prescreening matrix in partically contracted basis (1) ...done (   0.052 sec)
--------------
SCF ITERATIONS
--------------
ITER       Energy         Delta-E        Max-DP      RMS-DP      [F,P]     Damp
               ***  Starting incremental Fock matrix formation  ***
  0   -342.4539223842   0.000000000000 0.07309919  0.00106736  0.1190670 0.7000
  1   -342.4636647133  -0.009742329086 0.05231170  0.00086027  0.0873821 0.7000
                               ***Turning on DIIS***
  2   -342.4706935022  -0.007028788974 0.12252443  0.00220428  0.0619739 0.0000
  3   -342.4891182077  -0.018424705446 0.04217596  0.00056221  0.0095130 0.0000
  4   -342.4764908849   0.012627322794 0.01258151  0.00018267  0.0042854 0.0000
                      *** Initiating the SOSCF procedure ***
                           *** Shutting down DIIS ***
                      *** Re-Reading the Fockian *** 
                      *** Removing any level shift *** 
ITER      Energy       Delta-E        Grad      Rot      Max-DP    RMS-DP
  5   -342.48904854  -0.0125576532  0.001595  0.001595  0.002172  0.000048
               *** Restarting incremental Fock matrix formation ***
  6   -342.48791407   0.0011344669  0.000468  0.000793  0.000668  0.000023
  7   -342.48791733  -0.0000032614  0.000195  0.000573  0.000229  0.000012
  8   -342.48791807  -0.0000007413  0.000012  0.000014  0.000126  0.000002
  9   -342.48791808  -0.0000000030  0.000004  0.000005  0.000044  0.000001
                  ***Gradient check signals convergence***
              ***Rediagonalizing the Fockian in SOSCF/NRSCF***

               *****************************************************
               *                     SUCCESS                       *
               *           SCF CONVERGED AFTER  10 CYCLES          *
               *****************************************************

Old exchange energy                            =    -23.676299214 Eh
New exchange energy                            =    -23.676248662 Eh
Exchange energy change after final integration =      0.000050551 Eh
Total energy after final integration           =   -342.487867527 Eh
Final COS-X integration done in                =     0.197 sec

----------------
TOTAL SCF ENERGY
----------------

Total Energy       :         -342.48786753 Eh           -9319.56867 eV

Components:
Nuclear Repulsion  :           17.54383132 Eh             477.39192 eV
Electronic Energy  :         -360.03169885 Eh           -9796.96059 eV
One Electron Energy:         -508.32777147 Eh          -13832.30188 eV
Two Electron Energy:          148.29607262 Eh            4035.34129 eV
Max COSX asymmetry :            0.00000213 Eh               0.00006 eV

Virial components:
Potential Energy   :         -684.92055970 Eh          -18637.63595 eV
Kinetic Energy     :          342.43269218 Eh            9318.06728 eV
Virial Ratio       :            2.00016113


---------------
SCF CONVERGENCE
---------------

  Last Energy change         ...   -9.1927e-10  Tolerance :   1.0000e-09
  Last MAX-Density change    ...    6.6613e-16  Tolerance :   1.0000e-08
  Last RMS-Density change    ...    1.0779e-17  Tolerance :   1.0000e-09
  Last Orbital Gradient      ...    3.8440e-07  Tolerance :   2.0000e-06
  Last Orbital Rotation      ...    5.4107e-07  Tolerance :   2.0000e-06

             **** THE GBW FILE WAS UPDATED (phosphine_DLPNO_CCSD.gbw) ****
             **** DENSITY phosphine_DLPNO_CCSD.scfp WAS UPDATED ****
             **** ENERGY FILE WAS UPDATED (phosphine_DLPNO_CCSD.en.tmp) ****
             **** THE GBW FILE WAS UPDATED (phosphine_DLPNO_CCSD.gbw) ****
             **** DENSITY phosphine_DLPNO_CCSD.scfp WAS UPDATED ****
----------------
ORBITAL ENERGIES
----------------

  NO   OCC          E(Eh)            E(eV) 
   0   2.0000     -79.946906     -2175.4659 
   1   2.0000      -7.489293      -203.7940 
   2   2.0000      -5.383578      -146.4946 
   3   2.0000      -5.381890      -146.4487 
   4   2.0000      -5.381860      -146.4479 
   5   2.0000      -0.855033       -23.2666 
   6   2.0000      -0.520070       -14.1518 
   7   2.0000      -0.520036       -14.1509 
   8   2.0000      -0.389191       -10.5904 
   9   0.0000       0.029022         0.7897 
  10   0.0000       0.053583         1.4581 
  11   0.0000       0.053584         1.4581 
  12   0.0000       0.081346         2.2135 
  13   0.0000       0.090149         2.4531 
  14   0.0000       0.090150         2.4531 
  15   0.0000       0.137462         3.7405 
  16   0.0000       0.167371         4.5544 
  17   0.0000       0.167389         4.5549 
  18   0.0000       0.200105         5.4451 
  19   0.0000       0.200117         5.4455 
  20   0.0000       0.201610         5.4861 
  21   0.0000       0.275532         7.4976 
  22   0.0000       0.275543         7.4979 
  23   0.0000       0.291499         7.9321 
  24   0.0000       0.307788         8.3753 
  25   0.0000       0.307793         8.3755 
  26   0.0000       0.324057         8.8180 
  27   0.0000       0.326352         8.8805 
  28   0.0000       0.326362         8.8808 
  29   0.0000       0.333229         9.0676 
  30   0.0000       0.380403        10.3513 
  31   0.0000       0.380437        10.3522 
  32   0.0000       0.383969        10.4483 
  33   0.0000       0.566925        15.4268 
  34   0.0000       0.566963        15.4279 
  35   0.0000       0.568606        15.4726 
  36   0.0000       0.601527        16.3684 
  37   0.0000       0.601538        16.3687 
  38   0.0000       0.632370        17.2077 
  39   0.0000       0.658375        17.9153 
  40   0.0000       0.665993        18.1226 
  41   0.0000       0.729935        19.8626 
  42   0.0000       0.729951        19.8630 
  43   0.0000       0.749036        20.3823 
  44   0.0000       0.764908        20.8142 
  45   0.0000       0.765017        20.8172 
  46   0.0000       0.783100        21.3092 
  47   0.0000       0.783153        21.3107 
  48   0.0000       0.860614        23.4185 
  49   0.0000       0.932992        25.3880 
  50   0.0000       0.933023        25.3888 
  51   0.0000       0.966846        26.3092 
  52   0.0000       0.976132        26.5619 
  53   0.0000       1.005842        27.3703 
  54   0.0000       1.005867        27.3710 
  55   0.0000       1.028723        27.9930 
  56   0.0000       1.028775        27.9944 
  57   0.0000       1.032692        28.1010 
  58   0.0000       1.149868        31.2895 
  59   0.0000       1.149878        31.2898 
  60   0.0000       1.171491        31.8779 
  61   0.0000       1.199056        32.6280 
  62   0.0000       1.199077        32.6285 
  63   0.0000       1.262017        34.3412 
  64   0.0000       1.262046        34.3420 
  65   0.0000       1.272963        34.6391 
  66   0.0000       1.468809        39.9683 
  67   0.0000       1.504565        40.9413 
  68   0.0000       1.504603        40.9423 
  69   0.0000       1.512902        41.1682 
  70   0.0000       1.626244        44.2524 
  71   0.0000       1.626263        44.2529 
  72   0.0000       1.644260        44.7426 
  73   0.0000       1.677076        45.6355 
  74   0.0000       1.677196        45.6388 
  75   0.0000       1.787607        48.6433 
  76   0.0000       1.787745        48.6470 
  77   0.0000       1.795925        48.8696 
  78   0.0000       1.887075        51.3499 
  79   0.0000       1.993734        54.2523 
  80   0.0000       2.155467        58.6532 
  81   0.0000       2.155562        58.6558 
  82   0.0000       2.169434        59.0333 
  83   0.0000       2.271154        61.8013 
  84   0.0000       2.271206        61.8027 
  85   0.0000       2.314638        62.9845 
  86   0.0000       2.418765        65.8179 
  87   0.0000       2.419001        65.8244 
  88   0.0000       2.698901        73.4408 
  89   0.0000       2.912944        79.2652 
  90   0.0000       2.913142        79.2706 
  91   0.0000       3.456133        94.0462 
  92   0.0000       3.587573        97.6228 
  93   0.0000       3.587831        97.6298 
  94   0.0000       3.904796       106.2549 
  95   0.0000       3.904808       106.2552 
  96   0.0000       3.922757       106.7436 
  97   0.0000       3.990336       108.5826 
  98   0.0000       3.990358       108.5832 
  99   0.0000       4.117312       112.0378 
 100   0.0000       4.130070       112.3849 
 101   0.0000       4.130112       112.3861 
 102   0.0000       4.199261       114.2677 
 103   0.0000       4.320150       117.5572 
 104   0.0000       4.442955       120.8990 
 105   0.0000       4.442992       120.8999 
 106   0.0000       4.478105       121.8554 
 107   0.0000       4.525174       123.1363 
 108   0.0000       4.525228       123.1377 
 109   0.0000       4.544341       123.6578 
 110   0.0000       4.674453       127.1983 
 111   0.0000       4.742729       129.0562 
 112   0.0000       4.742866       129.0600 
 113   0.0000       4.814080       130.9978 
 114   0.0000       4.814104       130.9984 
 115   0.0000       4.864203       132.3617 
 116   0.0000       5.343461       145.4030 
 117   0.0000       5.343630       145.4076 
 118   0.0000       8.443766       229.7666 

                    ********************************
                    * MULLIKEN POPULATION ANALYSIS *
                    ********************************

-----------------------
MULLIKEN ATOMIC CHARGES
-----------------------
   0 P :   -0.243673
   1 H :    0.080050
   2 H :    0.081326
   3 H :    0.082297
Sum of atomic charges:    0.0000000

--------------------------------
MULLIKEN REDUCED ORBITAL CHARGES
--------------------------------
  0 P s       :     5.577315  s :     5.577315
      pz      :     3.284712  p :     9.393458
      px      :     3.028708
      py      :     3.080038
      dz2     :     0.087989  d :     0.254297
      dxz     :     0.021704
      dyz     :     0.029804
      dx2y2   :     0.101082
      dxy     :     0.013718
      f0      :     0.004701  f :     0.018604
      f+1     :     0.002199
      f-1     :     0.002705
      f+2     :     0.002300
      f-2     :     0.000561
      f+3     :     0.002931
      f-3     :     0.003206
  1 H s       :     0.912071  s :     0.912071
      pz      :    -0.000378  p :     0.007686
      px      :    -0.003099
      py      :     0.011163
      dz2     :    -0.000092  d :     0.000193
      dxz     :     0.000095
      dyz     :     0.000172
      dx2y2   :    -0.000177
      dxy     :     0.000195
  2 H s       :     0.911150  s :     0.911150
      pz      :     0.010205  p :     0.007363
      px      :    -0.003161
      py      :     0.000319
      dz2     :     0.000797  d :     0.000160
      dxz     :     0.000458
      dyz     :     0.000254
      dx2y2   :    -0.001183
      dxy     :    -0.000167
  3 H s       :     0.910374  s :     0.910374
      pz      :    -0.000397  p :     0.007136
      px      :     0.011955
      py      :    -0.004422
      dz2     :    -0.000097  d :     0.000194
      dxz     :     0.000271
      dyz     :     0.000008
      dx2y2   :     0.000228
      dxy     :    -0.000216


                     *******************************
                     * LOEWDIN POPULATION ANALYSIS *
                     *******************************

----------------------
LOEWDIN ATOMIC CHARGES
----------------------
   0 P :    1.315707
   1 H :   -0.438585
   2 H :   -0.438572
   3 H :   -0.438549

-------------------------------
LOEWDIN REDUCED ORBITAL CHARGES
-------------------------------
  0 P s       :     4.767052  s :     4.767052
      pz      :     2.962007  p :     8.487194
      px      :     2.740534
      py      :     2.784653
      dz2     :     0.107278  d :     0.348575
      dxz     :     0.026164
      dyz     :     0.046064
      dx2y2   :     0.141731
      dxy     :     0.027339
      f0      :     0.016328  f :     0.081472
      f+1     :     0.010856
      f-1     :     0.014075
      f+2     :     0.007857
      f-2     :     0.002733
      f+3     :     0.017309
      f-3     :     0.012314
  1 H s       :     0.828767  s :     0.828767
      pz      :     0.123199  p :     0.395803
      px      :     0.092245
      py      :     0.180359
      dz2     :     0.017483  d :     0.214015
      dxz     :     0.002452
      dyz     :     0.080977
      dx2y2   :     0.057217
      dxy     :     0.055886
  2 H s       :     0.828736  s :     0.828736
      pz      :     0.200659  p :     0.395812
      px      :     0.092255
      py      :     0.102898
      dz2     :     0.081145  d :     0.214025
      dxz     :     0.049694
      dyz     :     0.053808
      dx2y2   :     0.020743
      dxy     :     0.008634
  3 H s       :     0.828758  s :     0.828758
      pz      :     0.123210  p :     0.395784
      px      :     0.177100
      py      :     0.095474
      dz2     :     0.017468  d :     0.214007
      dxz     :     0.078000
      dyz     :     0.005442
      dx2y2   :     0.041924
      dxy     :     0.071173


                      *****************************
                      * MAYER POPULATION ANALYSIS *
                      *****************************

  NA   - Mulliken gross atomic population
  ZA   - Total nuclear charge
  QA   - Mulliken gross atomic charge
  VA   - Mayer's total valence
  BVA  - Mayer's bonded valence
  FA   - Mayer's free valence

  ATOM       NA         ZA         QA         VA         BVA        FA
  0 P     15.2437    15.0000    -0.2437     2.9513     2.9513     0.0000
  1 H      0.9200     1.0000     0.0800     0.9810     0.9810     0.0000
  2 H      0.9187     1.0000     0.0813     0.9794     0.9794    -0.0000
  3 H      0.9177     1.0000     0.0823     0.9782     0.9782     0.0000

  Mayer bond orders larger than 0.100000
B(  0-P ,  1-H ) :   0.9847 B(  0-P ,  2-H ) :   0.9839 B(  0-P ,  3-H ) :   0.9827 


-------
TIMINGS
-------

Total SCF time: 0 days 0 hours 0 min 1 sec 

Total time                  ....       1.410 sec
Sum of individual times     ....       1.303 sec  ( 92.4%)

Fock matrix formation       ....       1.187 sec  ( 84.2%)
  Split-RI-J                ....       0.174 sec  ( 14.7% of F)
  Chain of spheres X        ....       1.001 sec  ( 84.3% of F)
Diagonalization             ....       0.015 sec  (  1.0%)
Density matrix formation    ....       0.002 sec  (  0.1%)
Population analysis         ....       0.005 sec  (  0.4%)
Initial guess               ....       0.009 sec  (  0.7%)
Orbital Transformation      ....       0.000 sec  (  0.0%)
Orbital Orthonormalization  ....       0.000 sec  (  0.0%)
DIIS solution               ....       0.011 sec  (  0.8%)
SOSCF solution              ....       0.009 sec  (  0.6%)

Maximum memory used throughout the entire SCF-calculation: 62.2 MB


           ************************************************************
           *        Program running with 6 parallel MPI-processes     *
           *              working on a common directory               *
           ************************************************************

==========================================================
 RHF-DLPNO-CCSD UNRELAXED PROPERTY CALCULATION
==========================================================



------------------------------------------------------------------------------- 
                              ORCA-MATRIX DRIVEN CI                            
------------------------------------------------------------------------------- 


Wavefunction type
-----------------
Correlation treatment                      ...      CCSD     
Single excitations                         ... ON
Orbital optimization                       ... OFF
Calculation of Lambda equations            ... ON
Calculation of Brueckner orbitals          ... OFF
Perturbative triple excitations            ... OFF
Calculation of F12 correction              ... OFF
Frozen core treatment                      ... chemical core (10 el)
Reference Wavefunction                     ... RHF
  Internal Orbitals:     5 ...    8 (  4 MO's/  8 electrons)
  Virtual  Orbitals:     9 ...  118 (110 MO's              )
Number of AO's                             ...    119
Number of electrons                        ...     18
Number of correlated electrons             ...      8

Algorithmic settings
--------------------
Integral transformation                    ... All integrals via the RI transformation
K(C) Formation                             ... RI-DLPNO
   PNO-Integral Storage                    ... ON DISK
   PNO occupation number cut-off           ... 1.000e-07
   Singles PNO occupation number cut-off   ... 3.000e-09
   PNO Mulliken prescreening cut-off       ... 1.000e-03
   Domain cut-off (Mulliken population)    ... 1.000e-03
   PNO Normalization                       ...    1
Maximum number of iterations               ...        50
Convergence tolerance (max. residuum)      ... 1.000e-06
Level shift for amplitude update           ... 2.000e-01
Maximum number of DIIS vectors             ...         7
DIIS turned on at iteration                ...         0
Damping before turning on DIIS             ...     0.500
Damping after turning on DIIS              ...     0.000
Pair specific amplitude update             ... OFF
Natural orbital iterations                 ... OFF
Perturbative natural orbital generation    ... OFF
Printlevel                                 ... 2

Singles Fock matrix elements calculated using PNOs.

Memory handling:
----------------
Maximum memory for working arrays          ...   2000 MB
Data storage in matrix containers          ... UNCOMPRESSED
Data type for integral storage             ... DOUBLE
In-Core Storage of quantities:
   Amplitudes+Sigma Vector      ... NO
   J+K operators                ... NO
   DIIS vectors                 ... NO
   3-external integrals         ... NO
   4-external integrals         ... NO

Localization treatment:
-----------------------
Localization option                        ...    6
Localization threshhold                    ... -1.0e+00
Using relative localization threshhold     ... 1.0e-08
Neglect threshold for strong pairs         ... 1.000e-05 Eh
Prescreening threshold for very weak pairs ... 1.000e-07 Eh

Initializing the integral package          ... done
Localizing the valence orbitals
------------------------------------------------------------------------------
                           ORCA ORBITAL LOCALIZATION
------------------------------------------------------------------------------

Input orbitals are from                  ... phosphine_DLPNO_CCSD.gbw
Output orbitals are to                   ... phosphine_DLPNO_CCSD.loc
Max. number of iterations                ... 128
Localizations seeded randomly            ... off
Convergence tolerance                    ... 2.000e-07
Using relative localization threshhold   ... 1.000e-08
Treshold for strong local MOs            ... 9.500e-01
Treshold for bond MOs                    ... 8.500e-01
Operator                                 ... 0
Orbital range for localization           ... 5 to 8
Localization criterion                   ... FOSTER-BOYS (AUGMENTED HESSIAN)
Doing the dipole integrals     ... o.k.
Initial value of the localization sum :     4.385281
ITERATION   0 : L=   11.3917225645 DL=  7.01e+00 (AVERGE_DL)=    1.0806203510 
ITERATION   1 : L=   11.6318500714 DL=  2.40e-01 (AVERGE_DL)=    0.2000531208 
ITERATION   2 : L=   11.6321162011 DL=  2.66e-04 (AVERGE_DL)=    0.0066599508 
ITERATION   3 : L=   11.6321167308 DL=  5.30e-07 (AVERGE_DL)=    0.0002971331 
LOCALIZATION SUM CONVERGED

------------------------------------------------------
AUGMENTED HESSIAN OPTIMIZATION OF FOSTER-BOYS ORBITALS
------------------------------------------------------

Spin operator:           0
Orbital window:          5 to 8
Number of iterations:    128
Gradient tolerance:      2.000e-07
Number of pairs:         6
Davidson threshold:      2000
Diagonalization method:  LAPACK
Iter:    0   L: 11.6321167308   Grad. norm: 9.550940e-05
   *** Likely close to a maximum now. ***
       Augmented Hessian eigenvalues:  3.40e-10 -2.43e+01 -2.43e+01 -3.01e+01 ... 
Iter:    1   L: 11.6321167310   Grad. norm: 5.018579e-11
LOCALIZATION HAS CONVERGED.

Eigenvalues of the Hessian:
  0 -2.428e+01
  1 -2.428e+01
  2 -3.007e+01
  3 -3.032e+01
  4 -3.570e+01
  5 -3.570e+01


------------------------------------------------------------------------------- 
                    LOCALIZED MOLECULAR ORBITAL COMPOSITIONS                   
------------------------------------------------------------------------------- 

The Mulliken populations for each LMO on each atom are computed
The LMO`s will be ordered according to atom index and type
  (A) Strongly localized MO`s have populations of >=0.950 on one atom
  (B) Two center bond orbitals have populations of >=0.850 on two atoms
  (C) Other MO`s are considered to be `delocalized`

FOUND  -   1 strongly local MO`s
       -   3 two center bond MO`s
       -   0 significantly delocalized MO`s

Rather strongly localized orbitals:
MO   5:   0P  -   1.011292
Bond-like localized orbitals:
MO   8:   3H  -   0.466017  and   0P  -   0.537207
MO   7:   2H  -   0.466209  and   0P  -   0.537420
MO   6:   1H  -   0.466502  and   0P  -   0.536679
Localized MO's were stored in: phosphine_DLPNO_CCSD.loc

Localizing the core orbitals
------------------------------------------------------------------------------
                           ORCA ORBITAL LOCALIZATION
------------------------------------------------------------------------------

Input orbitals are from                  ... phosphine_DLPNO_CCSD.loc
Output orbitals are to                   ... phosphine_DLPNO_CCSD.loc
Max. number of iterations                ... 128
Localizations seeded randomly            ... off
Convergence tolerance                    ... 2.000e-07
Using relative localization threshhold   ... 1.000e-08
Treshold for strong local MOs            ... 9.500e-01
Treshold for bond MOs                    ... 8.500e-01
Operator                                 ... 0
Orbital range for localization           ... 0 to 4
Localization criterion                   ... FOSTER-BOYS (AUGMENTED HESSIAN)
Doing the dipole integrals     ... o.k.
Initial value of the localization sum :     1.380511
ITERATION   0 : L=    1.5618033549 DL=  1.81e-01 (AVERGE_DL)=    0.1346447581 
ITERATION   1 : L=    1.6190267644 DL=  5.72e-02 (AVERGE_DL)=    0.0756461562 
ITERATION   2 : L=    1.6259367479 DL=  6.91e-03 (AVERGE_DL)=    0.0262868476 
ITERATION   3 : L=    1.6262585510 DL=  3.22e-04 (AVERGE_DL)=    0.0056727686 
ITERATION   4 : L=    1.6262942935 DL=  3.57e-05 (AVERGE_DL)=    0.0018905697 
ITERATION   5 : L=    1.6262965896 DL=  2.30e-06 (AVERGE_DL)=    0.0004791766 
ITERATION   6 : L=    1.6262967368 DL=  1.47e-07 (AVERGE_DL)=    0.0001213169 
LOCALIZATION SUM CONVERGED

------------------------------------------------------
AUGMENTED HESSIAN OPTIMIZATION OF FOSTER-BOYS ORBITALS
------------------------------------------------------

Spin operator:           0
Orbital window:          0 to 4
Number of iterations:    128
Gradient tolerance:      2.000e-07
Number of pairs:         10
Davidson threshold:      2000
Diagonalization method:  LAPACK
Iter:    0   L: 1.6262967368   Grad. norm: 1.028573e-04
   *** Detected a saddle point. ***
       Augmented Hessian eigenvalues:  1.78e-04  1.31e-04  1.17e-04 -3.28e-05 ... 
Iter:    1   L: 1.6263504517   Grad. norm: 5.297220e-04
Iter:    2   L: 1.6263765368   Grad. norm: 3.074162e-04
Iter:    3   L: 1.6263769162   Grad. norm: 6.724580e-07
   *** Likely close to a maximum now. ***
       Augmented Hessian eigenvalues:  7.46e-12 -1.76e-04 -1.89e-04 -2.04e-04 ... 
Iter:    4   L: 1.6263769163   Grad. norm: 1.709530e-12
LOCALIZATION HAS CONVERGED.

Eigenvalues of the Hessian:
  0 -1.764e-04
  1 -1.887e-04
  2 -2.040e-04
  3 -1.633e-01
  4 -1.642e-01
  5 -1.643e-01
  6 -4.917e-01
  7 -6.543e-01
  8 -6.564e-01
  9 -6.564e-01


------------------------------------------------------------------------------- 
                    LOCALIZED MOLECULAR ORBITAL COMPOSITIONS                   
------------------------------------------------------------------------------- 

The Mulliken populations for each LMO on each atom are computed
The LMO`s will be ordered according to atom index and type
  (A) Strongly localized MO`s have populations of >=0.950 on one atom
  (B) Two center bond orbitals have populations of >=0.850 on two atoms
  (C) Other MO`s are considered to be `delocalized`

FOUND  -   5 strongly local MO`s
       -   0 two center bond MO`s
       -   0 significantly delocalized MO`s

Rather strongly localized orbitals:
MO   4:   0P  -   0.999946
MO   3:   0P  -   1.000002
MO   2:   0P  -   1.000152
MO   1:   0P  -   0.999570
MO   0:   0P  -   0.999569
Localized MO's were stored in: phosphine_DLPNO_CCSD.loc

Warning: reference  - re-canonicalizations have been set to INT 1 VIRT 1
Warning: internal orbitals are localized - no re-canonicalization of internal orbitals
Warning: UsePNO is turned on - no re-canonicalization of internal and virtual orbitals

--------------------------
CLOSED-SHELL FOCK OPERATOR
--------------------------

Restoring SHARK [2] ... ok
Entering RIJCOSX section for the Fock matrix
Trying to retrieve the full J-matrix              ... done
Updating the Fock matrix                          ... done
Making the frozen core Coulomb matrix             ... SHARKdone
Retrieving the full K-matrix                      ... done
Calculating the frozen core K-matrix              ... done
Updating the Fock matrix                          ... done
Time needed for Fock operator              ...            0.226 sec
Reference energy                           ...   -342.487867929

--------------
DLPNO SETTINGS (2015 fully linear scaling implementation)
--------------

TCutMKN:           1.000e-03
TCutPAO:           1.000e-03
TCutPNO:           1.000e-07
TCutPNOSingles:    3.000e-09
TCutEN:            9.700e-01
TCutPAOExt:        1.000e-01
TCutPairs:         1.000e-05
TCutPre:           1.000e-07
TCutOSV:           1.000e-06
TCutDOij:          1.000e-05
TCutDO:            5.000e-03
TCutC:             1.000e-04
TCutCPAO:          1.000e-03
TCutCMO:           1.000e-03
TScaleDOMP2PreScr: 2.000e+00
TScaleMKNMP2PreScr:1.000e+01
TScalePNOMP2PreScr:1.000e+00
PAO overlap thresh 1.000e-08
Using PNOs for Singles Fock computation
Use new domains
Use fully linear algorithm

--------------------------
Mulliken population of the LMOs            ... ok
Performing proximity check                 ... No problems found
Calculating differential overlap integrals ... ok

--------------------------
ELECTRON PAIR PRESCREENING
--------------------------

Dipole-based pair screening          .... used

   TCutDOij = 1.000000e-05
   TCutPre  = 1.000000e-07
   .... Finished loop over pairs
Total time spent in the prescreening                  ...     0.000 sec
sum of pair energies estimated for screened out pairs ...       0.000000000000 Eh
Thresholds for map construction and integral transformation for crude MP2:
   TCutMKN                    ...     1.0e-02
   TCutDO                     ...     1.0e-02
   TCutPairs                  ...     1.0e-05
   TCutPNO_CrudeMP2           ...     1.0e-07
   TCutPNOSingles_CrudeMP2    ...     3.0e-09
--------------------------------
LOCAL RI TRANSFORMATION (IAVPAO)
--------------------------------

Orbital window:       5 to 8
Number of PAOs:     119
Basis functions:    119 (43 shells)
Aux. functions:     285 (79 shells)
Use SHARK:           on

Processing maps (0.0 sec)
Average map sizes:
   Aux shells -> MOs               4.0
   Aux shells -> PAOs            119.0
   MOs        -> AO shells        43.0
   PAOs       -> AO shells        43.0

Calculating integrals (0.1 sec, 1.038 MB)
Sorting integrals (0.0 sec, 1.035 MB)
Total time for the integral transformation: 0.1 sec
--------------------------------
INITIAL GUESS AND PNO GENERATION
--------------------------------

PNO truncation parameters                   .... 
    PAOOverlapThresh   =        1.000e-08

    TCutPairs          =        1.000e-05
    TCutPNO            =        1.000e-07
    TCutPNOSingles     =        3.000e-09
    TCutMP2Pairs       =        1.000e-06
    TCutMKN            =        1.000e-02
    TCutDO             =        1.000e-02

Pair selection                          .... not used
Type of local MP2 treatment                 .... semi-local MP2
Strategy for PNO selection                  .... occupation number selection
Pair density normalization                  .... MP2 norm
Spin component scaling                      .... not used

   .... Finished loop over pairs
Computing semi-canonical or full LMP2 densities          ... done (    0.010 sec)
Making pair pair interaction lists          ... done

                       ===========================
                         10 OF   10 PAIRS ARE KEPT CCSD PAIRS
                          0 OF   10 PAIRS ARE KEPT MP2 PAIRS
                          0 OF   10 PAIRS ARE SKIPPED
                       ===========================

Total time spent in the initial guess                 ...     0.035 sec
SL-MP2 correlation energy (all non-screened pairs)    ...      -0.169975887197 Eh

Initial PNO correlation energy                        ...      -0.169943533186 Eh
sum of pair energies prescreened and skipped MP2 pairs...       0.000000000000 Eh
sum of pair energies of crude MP2 skipped pairs only  ...       0.000000000000 Eh
sum of MP2 pair energies for pairs that were not kept ...       0.000000000000 Eh
sum of PNO error estimates for the kept pairs         ...      -0.000032354011 Eh
                                                          --------------------
sum of all corrections                                         -0.000032354011
Initial total correlation energy                               -0.169975887197
Thresholds for map construction and integral transformation for fine MP2 and CCSD(T) calculation:
   TCutMKN   ...     1.0e-03
   TCutDO    ...     5.0e-03
   TCutPairs ...     1.0e-05
   TCutCMO   ...     1.0e-03
   TCutCPAO  ...     1.0e-03

--------------------------------
LOCAL RI TRANSFORMATION (IAVPAO)
--------------------------------

Orbital window:       5 to 8
Number of PAOs:     119
Basis functions:    119 (43 shells)
Aux. functions:     285 (79 shells)
Use SHARK:           on

Processing maps (0.0 sec)
Average map sizes:
   Aux shells -> MOs               4.0
   Aux shells -> PAOs            119.0
   MOs        -> AO shells        43.0
   PAOs       -> AO shells        43.0

Calculating integrals (0.1 sec, 1.038 MB)
Sorting integrals (0.0 sec, 1.035 MB)
Total time for the integral transformation: 0.1 sec
--------------------------------
INITIAL GUESS AND PNO GENERATION
--------------------------------

PNO truncation parameters                   .... 
    ScaleTCutPNO       =        1.000e-02
    PAOOverlapThresh   =        1.000e-08

    TCutPairs          =        1.000e-05
    TCutPNO            =        1.000e-07
    TCutPNOSingles     =        3.000e-09
    TCutMP2Pairs       =        1.000e-06
    TCutMKN            =        1.000e-03
    TCutDO             =        5.000e-03

Pair selection                          .... not used
Type of local MP2 treatment                 .... full local PMP2
Strategy for PNO selection                  .... occupation number selection
Pair density normalization                  .... MP2 norm
Spin component scaling                      .... not used

PASS-1: Formation of initial guess LMP2 amplitudes
Initial amplitudes guess done. Entering LMP2 iteration loop:
   Max. no of iterations          ...  50
   Energy convergence tolerance   ...    1.0e-07
   Residual convergence tolerance ...    5.0e-07
   Fock matrix cutoff             ...    1.0e-05 Eh
   DIIS convergence acceleration parameters:
        Max # vectors in DIIS     ... 7
        Start iteration of DIIS   ... 0
        Levelshift                ... 2.000e-01
        Damping factor 1          ... 5.000e-01
        Damping factor 2          ... 1.000e+00
   L-MP2 PNO cut-off              ...   1.0e-09
   L-MP2 PNO cut-off (core)       ...   1.0e-11
                           *** Turning on DIIS ***
LMP2-Iter=   0:  ELMP2= -0.171693901973  DE=   1.7e-03 RMAX=   3.7e-03
LMP2-Iter=   1:  ELMP2= -0.173247000416  DE=   1.6e-03 RMAX=   9.9e-04
LMP2-Iter=   2:  ELMP2= -0.173517867833  DE=   2.7e-04 RMAX=   1.9e-04
LMP2-Iter=   3:  ELMP2= -0.173540389295  DE=   2.3e-05 RMAX=   4.8e-05
LMP2-Iter=   4:  ELMP2= -0.173540573110  DE=   1.8e-07 RMAX=   5.5e-06
LMP2-Iter=   5:  ELMP2= -0.173540440357  DE=   1.3e-07 RMAX=   1.5e-06
LMP2-Iter=   6:  ELMP2= -0.173540433066  DE=   7.3e-09 RMAX=   1.3e-07
LMP2-Iter=   7:  ELMP2= -0.173540432767  DE=   3.0e-10 RMAX=   2.2e-08 => CONVERGED
PASS-2: Formation of Pair natural orbitals
   .... Finished loop over pairs
Computing semi-canonical or full LMP2 densities          ... done (    0.008 sec)

 PNO Occupation Number Statistics: 
  | Av. % of trace(Dij) retained        ...  99.992330753367
  | sigma^2 in % of trace(Dij) retained ...   1.03e-05
  | Av. % of trace(Di) retained         ...  99.999901431579
  | sigma^2 in % of trace(Di) retained  ...   6.82e-10
 Distributions of % trace(Dij) recovered:
  |       >= 99.9  ...    10 (100.0 % of all pairs)
 Distributions of % trace(Di) recovered :
  |       >= 99.9  ...     4 (100.0 % of all I-pairs )

Making pair pair interaction lists          ... done

                       ===========================
                         10 OF   10 PAIRS ARE KEPT
                       ===========================

Total time spent in the initial guess                 ...     0.124 sec
L-MP2 correlation energy (all non-screened pairs)     ...      -0.173540432767 Eh
L-MP2 PNO error correction                            ...      -0.000000145712 Eh
                                                          --------------------
Initial total L-MP2 energy (non-screened pairs)       ...      -0.173540578479 Eh

Initial PNO correlation energy                        ...      -0.173507382252 Eh
sum of pair energies estimated for screened out pairs ...       0.000000000000 Eh
sum of MP2 pair energies for pairs that were not kept ...       0.000000000000 Eh
sum of PNO error estimates for the kept pairs         ...      -0.000033196227 Eh
                                                          --------------------
sum of all corrections                                         -0.000033196227
Initial total correlation energy                               -0.173540578479
Thresholds for map construction and integral transformation for fine MP2 and CCSD(T) calculation:
   TCutMKN   ...     1.0e-03
   TCutDO    ...     5.0e-03
   TCutPairs ...     1.0e-05
   TCutCMO   ...     1.0e-03
   TCutCPAO  ...     1.0e-03

Time for aux screen maps:            0.000
Time for maps after fine MP2:            0.000
-----------------------------
LOCAL RI TRANSFORMATION (IJV)
-----------------------------

Orbital window:       5 to 8
Basis functions:    119 (43 shells)
Aux. functions:     285 (79 shells)
Use SHARK:           on

Processing maps (0.0 sec)
Average map sizes:
   Aux shells -> MOs(i)            4.0
   Aux shells -> MOs(j)            4.0
   MOs        -> AO shells        43.0

Calculating integrals (0.1 sec, 0.038 MB)
Sorting integrals (0.0 sec, 0.035 MB)
Total time for the integral transformation: 0.1 sec
--------------------------------
LOCAL RI TRANSFORMATION (VABPAO)
--------------------------------

Number of PAOs:     119
Basis functions:    119 (43 shells)
Aux. functions:     285 (79 shells)
Use SHARK:           on

Processing maps (0.0 sec)
Average map sizes:
   Aux shells -> PAOs            119.0
   PAOs       -> AO shells        43.0

Calculating integrals (0.1 sec, 30.795 MB)
Finished


-------------------------------------
Pair Pair Term precalculation with     
RI-(ij|mn) and (im|jn) transformation  
ON THE FLY                             
-------------------------------------

   IBatch   1 (of   1)              ... done (    0.366 sec)
Total EXT                           ...           0.366 sec

---------------------
RI-PNO TRANSFORMATION
---------------------

Total Number of PNOs                   ...   654
Average number of PNOs per pair        ...    65
Maximal number of PNOs per pair        ...    71
   #pairs with  1 -  5 PNOs   :    0
   #pairs with  6 - 10 PNOs   :    0
   #pairs with 11 - 15 PNOs   :    0
   #pairs with 16 - 20 PNOs   :    0
   #pairs with 21 - 25 PNOs   :    0
   #pairs with 26 - 30 PNOs   :    0
   #pairs with 31 - 35 PNOs   :    0
   #pairs with 36 - 40 PNOs   :    0
   #pairs with 41 - 45 PNOs   :    0
   #pairs with 46 - 50 PNOs   :    0
   #pairs with 56 - 60 PNOs   :    3
   #pairs with 61 - 65 PNOs   :    1
   #pairs with 66 - 70 PNOs   :    3
   #pairs with 71 - 75 PNOs   :    3

Generation of (ij|ab)[P] integrals            ... on
Generation of (ia|bc)[P],(ja|bc)[P] integrals ... on
Storage of 3 and 4 external integrals         ... on
Generation of ALL (ka|bc)[P] integrals        ... on
Keep RI integrals in memory                   ... off

Ibatch:  1 (of  1)
Starting 2-4 index PNO integral generation ... done

Timings:
Total PNO integral transformation time     ...          0.668 sec
Size of the 3-external file                ...        22 MB
Size of the 4-external file                ...       186 MB
Size of the IKJL file                      ...         0 MB
Size of the all 3-external file            ...        44 MB
Size of the 1-external file                ...         0 MB

Making pair/pair overlap matrices          ... done (    0.004 sec)
Size of the pair overlap file              ... 4 MB
Redoing the guess amplitudes               ... done (    0.000 sec)

-------------------------
FINAL STARTUP INFORMATION
-------------------------

E(0)                                       ...   -342.487867929
E(L-MP2)                                   ...     -0.173540578
E(L-MP2) including corrections             ...     -0.173540578
Initial E(tot)                             ...   -342.661408508
<T|T>                                      ...      0.068871852
Number of pairs included                   ... 10
Total number of pairs                      ... 10

------------------------------------------------
                  RHF COUPLED CLUSTER ITERATIONS
------------------------------------------------

Number of PNO amplitudes to be optimized   ...        43056
Number of non-PNO amplitudes               ...       121000
Untruncated number of regular amplitudes   ...       121000

Iter       E(tot)           E(Corr)          Delta-E          Residual     Time
  0   -342.657884098     -0.169982973      0.003557606      0.009148292    1.92
                           *** Turning on DIIS ***
  1   -342.678224112     -0.190322987     -0.020340014      0.006213885    1.91
  2   -342.687782930     -0.199881804     -0.009558817      0.002025669    1.92
  3   -342.689022536     -0.201121411     -0.001239606      0.000948507    1.87
  4   -342.689397143     -0.201496018     -0.000374607      0.000301580    1.89
  5   -342.689527389     -0.201626264     -0.000130246      0.000094473    1.92
  6   -342.689547623     -0.201646498     -0.000020234      0.000031330    1.92
  7   -342.689550729     -0.201649604     -0.000003106      0.000015325    1.91
  8   -342.689551567     -0.201650441     -0.000000837      0.000007544    1.89
  9   -342.689551863     -0.201650738     -0.000000297      0.000002813    1.90
 10   -342.689551862     -0.201650737      0.000000001      0.000000988    1.92
               --- The Coupled-Cluster iterations have converged ---

----------------------
COUPLED CLUSTER ENERGY
----------------------

E(0)                                       ...   -342.487867929
E(CORR)(strong-pairs)                      ...     -0.201650737
E(CORR)(weak-pairs)                        ...     -0.000033196
E(CORR)(corrected)                         ...     -0.201683933
E(TOT)                                     ...   -342.689551862
Singles Norm <S|S>**1/2                    ...      0.038010035  
T1 diagnostic                              ...      0.013438577  

------------------
LARGEST AMPLITUDES
------------------
   5-> 11   5-> 11       0.047858
   5-> 10   5-> 10       0.047855
   6->  9   6->  9       0.042534
   8->  9   8->  9       0.042533
   7->  9   7->  9       0.042532
   5-> 24   5-> 24       0.027459
   7-> 12   7-> 12       0.025100
   8-> 12   8-> 12       0.025093
   6-> 12   6-> 12       0.025086
   5-> 23   5-> 23       0.024737
   6-> 10   6-> 10       0.022146
   7-> 10   7-> 10       0.022146
   8-> 10   8-> 10       0.022144
   7->  9   7-> 18       0.021531
   7-> 18   7->  9       0.021531
   8->  9   8-> 18       0.021515


--------------------------------------------------
Formed intermediates for Lambda iterations in     0.086 sec
--------------------------------------------------


------------------------------------------------
LAMBDA ITERATIONS FOR RHF COUPLED CLUSTER       
------------------------------------------------

Iter      <Z Sig>           Residual     Time 
  0      0.000421964      0.005003548    1.70
                           *** Turning on DIIS ***
  1     -0.000354809      0.002180175    1.72
  2     -0.000170659      0.001258816    1.84
  3     -0.000066063      0.000538773    1.82
  4     -0.000009885      0.000123973    1.83
  5     -0.000001451      0.000023364    1.83
  6      0.000000292      0.000010566    1.77
  7      0.000000057      0.000004964    1.78
  8     -0.000000029      0.000002342    1.75
  9     -0.000000045      0.000000976    1.72
               --- The Lambda iterations for RHF Coupled Cluster have converged ---
Singles Norm <S|S>**1/2                    ...      0.030624762  
T1 diagnostic                              ...      0.010827488  

------------------
LARGEST AMPLITUDES
------------------
   5-> 11   5-> 11       0.045503
   5-> 10   5-> 10       0.045499
   6->  9   6->  9       0.040753
   8->  9   8->  9       0.040752
   7->  9   7->  9       0.040752
   5-> 24   5-> 24       0.026325
   7-> 12   7-> 12       0.024390
   8-> 12   8-> 12       0.024382
   6-> 12   6-> 12       0.024376
   5-> 23   5-> 23       0.023682
   6-> 10   6-> 10       0.021452
   7-> 10   7-> 10       0.021451
   8-> 10   8-> 10       0.021450
   7-> 18   7->  9       0.020735
   7->  9   7-> 18       0.020735
   8-> 18   8->  9       0.020719


----------------------------------------------------------------
 Unrelaxed one-particle density matrices from the CC Lagrangian 
----------------------------------------------------------------

Trace of the occupied block of the density-matrix: =     17.792608384
Trace of the virtual block of the density-matrix:  =      0.207391616
Trace of the total one-particle density-matrix:    =     18.000000000

------------------------------------------------------------------------------
                           ORCA POPULATION ANALYSIS
------------------------------------------------------------------------------
Input electron density              ... phosphine_DLPNO_CCSD.mdcip
BaseName (.gbw .S,...)              ... phosphine_DLPNO_CCSD

                    ********************************
                    * MULLIKEN POPULATION ANALYSIS *
                    ********************************

-----------------------
MULLIKEN ATOMIC CHARGES
-----------------------
   0 P :   -0.295928
   1 H :    0.098546
   2 H :    0.098533
   3 H :    0.098849
Sum of atomic charges:    0.0000000

--------------------------------
MULLIKEN REDUCED ORBITAL CHARGES
--------------------------------
  0 P s       :     5.559900  s :     5.559900
      pz      :     3.264495  p :     9.428985
      px      :     3.061787
      py      :     3.102704
      dz2     :     0.091626  d :     0.283314
      dxz     :     0.032815
      dyz     :     0.039426
      dx2y2   :     0.097197
      dxy     :     0.022251
      f0      :     0.005052  f :     0.023728
      f+1     :     0.003272
      f-1     :     0.003560
      f+2     :     0.003128
      f-2     :     0.001767
      f+3     :     0.003244
      f-3     :     0.003705
  1 H s       :     0.878351  s :     0.878351
      pz      :     0.004926  p :     0.021714
      px      :     0.002315
      py      :     0.014473
      dz2     :     0.000190  d :     0.001389
      dxz     :     0.000297
      dyz     :     0.000318
      dx2y2   :     0.000079
      dxy     :     0.000505
  2 H s       :     0.878224  s :     0.878224
      pz      :     0.013332  p :     0.021851
      px      :     0.002268
      py      :     0.006251
      dz2     :     0.000905  d :     0.001391
      dxz     :     0.000689
      dyz     :     0.000473
      dx2y2   :    -0.000752
      dxy     :     0.000076
  3 H s       :     0.878161  s :     0.878161
      pz      :     0.005263  p :     0.021607
      px      :     0.015896
      py      :     0.000448
      dz2     :     0.000174  d :     0.001383
      dxz     :     0.000522
      dyz     :     0.000174
      dx2y2   :     0.000444
      dxy     :     0.000068


                     *******************************
                     * LOEWDIN POPULATION ANALYSIS *
                     *******************************

----------------------
LOEWDIN ATOMIC CHARGES
----------------------
   0 P :    1.308569
   1 H :   -0.436130
   2 H :   -0.436219
   3 H :   -0.436220

-------------------------------
LOEWDIN REDUCED ORBITAL CHARGES
-------------------------------
  0 P s       :     4.756966  s :     4.756966
      pz      :     2.941238  p :     8.474068
      px      :     2.747018
      py      :     2.785812
      dz2     :     0.110309  d :     0.368358
      dxz     :     0.034872
      dyz     :     0.051683
      dx2y2   :     0.138075
      dxy     :     0.033418
      f0      :     0.017841  f :     0.092039
      f+1     :     0.012512
      f-1     :     0.015820
      f+2     :     0.009430
      f-2     :     0.004052
      f+3     :     0.018672
      f-3     :     0.013713
  1 H s       :     0.810228  s :     0.810228
      pz      :     0.127996  p :     0.409593
      px      :     0.097410
      py      :     0.184187
      dz2     :     0.018052  d :     0.216309
      dxz     :     0.003318
      dyz     :     0.080374
      dx2y2   :     0.057469
      dxy     :     0.057095
  2 H s       :     0.810251  s :     0.810251
      pz      :     0.204981  p :     0.409646
      px      :     0.097412
      py      :     0.107252
      dz2     :     0.081193  d :     0.216322
      dxz     :     0.051131
      dyz     :     0.054464
      dx2y2   :     0.020268
      dxy     :     0.009267
  3 H s       :     0.810251  s :     0.810251
      pz      :     0.128045  p :     0.409635
      px      :     0.180554
      py      :     0.101036
      dz2     :     0.018043  d :     0.216333
      dxz     :     0.078116
      dyz     :     0.005595
      dx2y2   :     0.042823
      dxy     :     0.071757


                      *****************************
                      * MAYER POPULATION ANALYSIS *
                      *****************************

  NA   - Mulliken gross atomic population
  ZA   - Total nuclear charge
  QA   - Mulliken gross atomic charge
  VA   - Mayer's total valence
  BVA  - Mayer's bonded valence
  FA   - Mayer's free valence

  ATOM       NA         ZA         QA         VA         BVA        FA
  0 P     15.2959    15.0000    -0.2959     3.2771     2.7339     0.5431
  1 H      0.9015     1.0000     0.0985     1.0143     0.9270     0.0872
  2 H      0.9015     1.0000     0.0985     1.0144     0.9272     0.0872
  3 H      0.9012     1.0000     0.0988     1.0138     0.9266     0.0872

  Mayer bond orders larger than 0.100000
B(  0-P ,  1-H ) :   0.9111 B(  0-P ,  2-H ) :   0.9116 B(  0-P ,  3-H ) :   0.9112 




------------------------------------------------------------------------------- 
                                     TIMINGS                                   
------------------------------------------------------------------------------- 


Total execution time                   ...       41.271 sec

Localization of occupied MO's          ...        0.280 sec (  0.7%)
Fock Matrix Formation                  ...        0.226 sec (  0.5%)
Global overlap, Fock, MKN matrices     ...        0.109 sec (  0.3%)
Differential overlap integrals         ...        0.070 sec (  0.2%)
Organizing maps                        ...        0.001 sec (  0.0%)
RI 3-index integral generations        ...        0.422 sec (  1.0%)
RI-PNO integral transformation         ...        1.041 sec (  2.5%)
Initial Guess                          ...        0.164 sec (  0.4%)
DIIS Solver                            ...        0.042 sec (  0.1%)
State Vector Update                    ...        0.001 sec (  0.0%)
Sigma-vector construction              ...       20.942 sec ( 50.7%)
  <D|H|D>(0-ext)                       ...        0.028 sec (  0.1% of sigma)
  <D|H|D>(2-ext Fock)                  ...        0.002 sec (  0.0% of sigma)
  <D|H|D>(2-ext)                       ...        0.128 sec (  0.6% of sigma)
  <D|H|D>(4-ext)                       ...        5.083 sec ( 24.3% of sigma)
  <D|H|D>(4-ext-corr)                  ...       14.639 sec ( 69.9% of sigma)
  CCSD doubles correction              ...        0.004 sec (  0.0% of sigma)
  <S|H|S>                              ...        0.043 sec (  0.2% of sigma)
  <S|H|D>(1-ext)                       ...        0.007 sec (  0.0% of sigma)
  <S|H|D>(3-ext)                       ...        0.046 sec (  0.2% of sigma)
  Fock-dressing                        ...        0.269 sec (  1.3% of sigma)
  Singles amplitudes                   ...        0.005 sec (  0.0% of sigma)
  (ik|jl)-dressing                     ...        0.021 sec (  0.1% of sigma)
  (ij|ab),(ia|jb)-dressing             ...        0.104 sec (  0.5% of sigma)
Guess for Lagrange multipliers         ...        0.012 sec (  0.0%)
Fock-dressing for lambda iterations    ...        0.022 sec (  0.1%)
(ij|ab),(ia|jb)-dressing with doubles  ...        0.006 sec (  0.0%)
(ik|ja)-dressing for lambda iterations ...        0.051 sec (  0.1%)
(ij|ab),(ia|jb)-dressing with singles  ...        0.005 sec (  0.0%)
Lambda equation construction           ...       17.761 sec ( 43.0%)
  Lambda singles amplitudes            ...        0.006 sec (  0.0% of lambda iter.)
  Lambda doubles w/o 4- and 2-ext      ...        0.255 sec (  1.4% of lambda iter.)
  Pair-pair interaction (2-ext) terms  ...        0.076 sec (  0.4% of lambda iter.)
  4-ext contributions                  ...       15.157 sec ( 85.3% of lambda iter.)
  Lambda singles residua               ...        0.632 sec (  3.6% of lambda iter.)
One-particle density matrix            ...        0.005 sec (  0.0%)


Maximum memory used throughout the entire MDCI-calculation: 524.4 MB

-------------------------   --------------------
FINAL SINGLE POINT ENERGY      -342.689551862486
-------------------------   --------------------


                            ***************************************
                            *     ORCA property calculations      *
                            ***************************************

                                    ---------------------
                                    Active property flags
                                    ---------------------
   (+) Dipole Moment


------------------------------------------------------------------------------
                       ORCA ELECTRIC PROPERTIES CALCULATION
------------------------------------------------------------------------------

Dipole Moment Calculation                       ... on
Quadrupole Moment Calculation                   ... off
Polarizability Calculation                      ... off
GBWName                                         ... phosphine_DLPNO_CCSD.gbw
Electron density                                ... phosphine_DLPNO_CCSD.scfp
The origin for moment calculation is the CENTER OF MASS  = (-0.131918, -0.186398  0.322990)

-------------
DIPOLE MOMENT
-------------
                                X             Y             Z
Electronic contribution:     -0.59379      -0.83962       1.45418
Nuclear contribution   :      0.68242       0.96474      -1.67130
                        -----------------------------------------
Total Dipole Moment    :      0.08863       0.12511      -0.21712
                        -----------------------------------------
Magnitude (a.u.)       :      0.26580
Magnitude (Debye)      :      0.67561



--------------------
Rotational spectrum 
--------------------
 
Rotational constants in cm-1:     4.445043     4.444854     3.936882 
Rotational constants in MHz : 133259.033668 133253.369889 118024.763384 

 Dipole components along the rotational axes: 
x,y,z [a.u.] :    -0.000089     0.000052    -0.265800 
x,y,z [Debye]:    -0.000227     0.000133    -0.675609 

 

                           *** MDCI DENSITY ***

------------------------------------------------------------------------------
                       ORCA ELECTRIC PROPERTIES CALCULATION
------------------------------------------------------------------------------

Dipole Moment Calculation                       ... on
Quadrupole Moment Calculation                   ... off
Polarizability Calculation                      ... off
GBWName                                         ... phosphine_DLPNO_CCSD.gbw
Electron density                                ... phosphine_DLPNO_CCSD.mdcip
The origin for moment calculation is the CENTER OF MASS  = (-0.131918, -0.186398  0.322990)

-------------
DIPOLE MOMENT
-------------
                                X             Y             Z
Electronic contribution:     -0.60162      -0.85053       1.47341
Nuclear contribution   :      0.68242       0.96474      -1.67130
                        -----------------------------------------
Total Dipole Moment    :      0.08080       0.11421      -0.19788
                        -----------------------------------------
Magnitude (a.u.)       :      0.24234
Magnitude (Debye)      :      0.61599



--------------------
Rotational spectrum 
--------------------
 
Rotational constants in cm-1:     4.445043     4.444854     3.936882 
Rotational constants in MHz : 133259.033668 133253.369889 118024.763384 

 Dipole components along the rotational axes: 
x,y,z [a.u.] :     0.000060    -0.000016    -0.242344 
x,y,z [Debye]:     0.000152    -0.000041    -0.615988 

 

Timings for individual modules:

Sum of individual times         ...       43.159 sec (=   0.719 min)
GTO integral calculation        ...        0.216 sec (=   0.004 min)   0.5 %
SCF iterations                  ...        1.515 sec (=   0.025 min)   3.5 %
MDCI module                     ...       41.428 sec (=   0.690 min)  96.0 %
                             ****ORCA TERMINATED NORMALLY****
TOTAL RUN TIME: 0 days 0 hours 0 minutes 43 seconds 352 msec
