
                                 *****************
                                 * O   R   C   A *
                                 *****************

           --- An Ab Initio, DFT and Semiempirical electronic structure package ---

                  #######################################################
                  #                        -***-                        #
                  #          Department of theory and spectroscopy      #
                  #               Directorship: Frank Neese             #
                  #        Max Planck Institute fuer Kohlenforschung    #
                  #                Kaiser Wilhelm Platz 1               #
                  #                 D-45470 Muelheim/Ruhr               #
                  #                      Germany                        #
                  #                                                     #
                  #                  All rights reserved                #
                  #                        -***-                        #
                  #######################################################


                         Program Version 4.2.1 -  RELEASE  -


 With contributions from (in alphabetic order):
   Daniel Aravena         : Magnetic Suceptibility
   Michael Atanasov       : Ab Initio Ligand Field Theory (pilot matlab implementation)
   Alexander A. Auer      : GIAO ZORA, VPT2
   Ute Becker             : Parallelization
   Giovanni Bistoni       : ED, misc. LED, open-shell LED, HFLD
   Martin Brehm           : Molecular dynamics
   Dmytro Bykov           : SCF Hessian
   Vijay G. Chilkuri      : MRCI spin determinant printing, contributions to CSF-ICE
   Dipayan Datta          : RHF DLPNO-CCSD density
   Achintya Kumar Dutta   : EOM-CC, STEOM-CC
   Dmitry Ganyushin       : Spin-Orbit,Spin-Spin,Magnetic field MRCI
   Miquel Garcia          : C-PCM Hessian, Gaussian charge scheme
   Yang Guo               : DLPNO-NEVPT2, CIM, IAO-localization
   Andreas Hansen         : Spin unrestricted coupled pair/coupled cluster methods
   Benjamin Helmich-Paris : CASSCF linear response (MC-RPA)
   Lee Huntington         : MR-EOM, pCC
   Robert Izsak           : Overlap fitted RIJCOSX, COSX-SCS-MP3, EOM
   Christian Kollmar      : KDIIS, OOCD, Brueckner-CCSD(T), CCSD density
   Simone Kossmann        : Meta GGA functionals, TD-DFT gradient, OOMP2, MP2 Hessian
   Martin Krupicka        : AUTO-CI
   Lucas Lang             : DCDCAS
   Dagmar Lenk            : GEPOL surface, SMD
   Dimitrios Liakos       : Extrapolation schemes; Compound Job, initial MDCI parallelization
   Dimitrios Manganas     : Further ROCIS development; embedding schemes
   Dimitrios Pantazis     : SARC Basis sets
   Taras Petrenko         : DFT Hessian,TD-DFT gradient, ASA, ECA, R-Raman, ABS, FL, XAS/XES, NRVS
   Peter Pinski           : DLPNO-MP2, DLPNO-MP2 Gradient
   Christoph Reimann      : Effective Core Potentials
   Marius Retegan         : Local ZFS, SOC
   Christoph Riplinger    : Optimizer, TS searches, QM/MM, DLPNO-CCSD(T), (RO)-DLPNO pert. Triples
   Tobias Risthaus        : Range-separated hybrids, TD-DFT gradient, RPA, STAB
   Michael Roemelt        : Original ROCIS implementation
   Masaaki Saitow         : Open-shell DLPNO-CCSD energy and density
   Barbara Sandhoefer     : DKH picture change effects
   Avijit Sen             : IP-ROCIS
   Kantharuban Sivalingam : CASSCF convergence, NEVPT2, FIC-MRCI
   Bernardo de Souza      : ESD, SOC TD-DFT
   Georgi Stoychev        : AutoAux, RI-MP2 NMR
   Willem Van den Heuvel  : Paramagnetic NMR
   Boris Wezisla          : Elementary symmetry handling
   Frank Wennmohs         : Technical directorship


 We gratefully acknowledge several colleagues who have allowed us to
 interface, adapt or use parts of their codes:
   Stefan Grimme, W. Hujo, H. Kruse,             : VdW corrections, initial TS optimization,
                  C. Bannwarth                     DFT functionals, gCP, sTDA/sTD-DF
   Ed Valeev, F. Pavosevic, A. Kumar             : LibInt (2-el integral package), F12 methods
   Garnet Chan, S. Sharma, J. Yang, R. Olivares  : DMRG
   Ulf Ekstrom                                   : XCFun DFT Library
   Mihaly Kallay                                 : mrcc  (arbitrary order and MRCC methods)
   Andreas Klamt, Michael Diedenhofen            : otool_cosmo (COSMO solvation model)
   Jiri Pittner, Ondrej Demel                    : Mk-CCSD
   Frank Weinhold                                : gennbo (NPA and NBO analysis)
   Christopher J. Cramer and Donald G. Truhlar   : smd solvation model
   Lars Goerigk                                  : TD-DFT with DH, B97 family of functionals
   V. Asgeirsson, H. Jonsson                     : NEB implementation
   FAccTs GmbH                                   : IRC, NEB, NEB-TS, Multilevel, MM, QM/MM, CI optimization
   S Lehtola, MJT Oliveira, MAL Marques          : LibXC Library


 Your calculation uses the libint2 library for the computation of 2-el integrals
 For citations please refer to: http://libint.valeyev.net

 Your ORCA version has been built with support for libXC version: 4.2.3
 For citations please refer to: https://tddft.org/programs/libxc/

 This ORCA versions uses:
   CBLAS   interface :  Fast vector & matrix operations
   LAPACKE interface :  Fast linear algebra routines
   SCALAPACK package :  Parallel linear algebra routines




***************************************
The coordinates will be read from file: dimethyl_ether_MP2_aug-cc-pVTZ_OPT.xyz
***************************************


----- Orbital basis set information -----
Your calculation utilizes the basis: aug-cc-pVTZ 
    H, B-Ne : Obtained from the ccRepo (grant-hill.group.shef.ac.uk/ccrepo) Feb. 2017
              R. A. Kendall, T. H. Dunning, Jr., R. J. Harrison, J. Chem. Phys. 96, 6796 (1992)
         He : Obtained from the ccRepo (grant-hill.group.shef.ac.uk/ccrepo) Feb. 2017
              D. E. Woon, T. H. Dunning, Jr., J. Chem. Phys. 100, 2975 (1994)
  Li-Be, Na : Obtained from the ccRepo (grant-hill.group.shef.ac.uk/ccrepo) Feb. 2017
              B. P. Prascher, D. E. Woon, K. A. Peterson, T. H. Dunning, Jr., A. K. Wilson, Theor. Chem. Acc. 128, 69 (2011)
         Mg : Obtained from the Peterson Research Group Website (tyr0.chem.wsu.edu/~kipeters) Feb. 2017
              B. P. Prascher, D. E. Woon, K. A. Peterson, T. H. Dunning, Jr., A. K. Wilson, Theor. Chem. Acc. 128, 69 (2011)
      Al-Ar : Obtained from the ccRepo (grant-hill.group.shef.ac.uk/ccrepo) Feb. 2017
              D. E. Woon, T. H. Dunning, Jr., J. Chem. Phys. 98, 1358 (1993)
      Sc-Zn : Obtained from the ccRepo (grant-hill.group.shef.ac.uk/ccrepo) Feb. 2017
              N. B. Balabanov, K. A. Peterson, J. Chem. Phys. 123, 064107 (2005)
              N. B. Balabanov, K. A. Peterson, J. Chem. Phys. 125, 074110 (2006)
      Ga-Kr : Obtained from the ccRepo (grant-hill.group.shef.ac.uk/ccrepo) Feb. 2017
              A. K. Wilson, D. E. Woon, K. A. Peterson, T. H. Dunning, Jr., J. Chem. Phys. 110, 7667 (1999)
     Ag, Au : Obtained from the Peterson Research Group Website (tyr0.chem.wsu.edu/~kipeters) Feb. 2017
              K. A. Peterson, C. Puzzarini, Theor. Chem. Acc. 114, 283 (2005)

================================================================================
                                        WARNINGS
                       Please study these warnings very carefully!
================================================================================


WARNING: MDCI localization with Augmented Hessian Foster-Boys
  ===> : Switching off randomization!

WARNING: Post HF methods need fully converged wavefunctions
  ===> : Setting SCFConvForced true
         You can overwrite this default with %scf ConvForced false 


INFO   : the flag for use of LIBINT has been found!

================================================================================
                                       INPUT FILE
================================================================================
NAME = dimethyl_ether_CCSD_aug-cc-pVTZ_SPE.inp
|  1> # dimethyl_ether CCSD/aug-cc-pVTZ SPE
|  2> 
|  3> ! CCSD aug-cc-pVTZ TightSCF PAL16
|  4> %maxcore 1000
|  5> 
|  6> * xyzfile 0 1 dimethyl_ether_MP2_aug-cc-pVTZ_OPT.xyz
|  7> 
|  8> 
|  9>                          ****END OF INPUT****
================================================================================

                       ****************************
                       * Single Point Calculation *
                       ****************************

---------------------------------
CARTESIAN COORDINATES (ANGSTROEM)
---------------------------------
  C      1.423161    0.000448    0.000810
  O      0.011345    0.008039    0.013887
  C     -0.473514    0.671060    1.162274
  H      1.822902    1.019917   -0.011599
  H      1.738092   -0.519354   -0.899693
  H      1.822879   -0.520186    0.877408
  H     -0.136300    0.172673    2.077236
  H     -1.558785    0.646143    1.119301
  H     -0.136439    1.712681    1.188037

----------------------------
CARTESIAN COORDINATES (A.U.)
----------------------------
  NO LB      ZA    FRAG     MASS         X           Y           Z
   0 C     6.0000    0    12.011    2.689384    0.000847    0.001530
   1 O     8.0000    0    15.999    0.021438    0.015191    0.026242
   2 C     6.0000    0    12.011   -0.894812    1.268119    2.196380
   3 H     1.0000    0     1.008    3.444785    1.927364   -0.021919
   4 H     1.0000    0     1.008    3.284518   -0.981437   -1.700174
   5 H     1.0000    0     1.008    3.444742   -0.983009    1.658062
   6 H     1.0000    0     1.008   -0.257571    0.326304    3.925407
   7 H     1.0000    0     1.008   -2.945677    1.221032    2.115172
   8 H     1.0000    0     1.008   -0.257833    3.236498    2.245064

--------------------------------
INTERNAL COORDINATES (ANGSTROEM)
--------------------------------
 C      0   0   0     0.000000000000     0.00000000     0.00000000
 O      1   0   0     1.411896843841     0.00000000     0.00000000
 C      2   1   0     1.411906455624   110.69817955     0.00000000
 H      1   2   3     1.095109234314   111.10654674   299.50978250
 H      1   2   3     1.086407741853   107.46455946   180.00485090
 H      1   2   3     1.095107236573   111.10788398    60.49833594
 H      3   2   1     1.095105991167   111.10659516   299.51196623
 H      3   2   1     1.086407409849   107.46387312   180.00662088
 H      3   2   1     1.095106170337   111.10580927    60.50110265

---------------------------
INTERNAL COORDINATES (A.U.)
---------------------------
 C      0   0   0     0.000000000000     0.00000000     0.00000000
 O      1   0   0     2.668098364207     0.00000000     0.00000000
 C      2   1   0     2.668116527846   110.69817955     0.00000000
 H      1   2   3     2.069456539582   111.10654674   299.50978250
 H      1   2   3     2.053013101874   107.46455946   180.00485090
 H      1   2   3     2.069452764398   111.10788398    60.49833594
 H      3   2   1     2.069450410922   111.10659516   299.51196623
 H      3   2   1     2.053012474477   107.46387312   180.00662088
 H      3   2   1     2.069450749504   111.10580927    60.50110265

---------------------
BASIS SET INFORMATION
---------------------
There are 3 groups of distinct atoms

 Group   1 Type C   : 19s6p3d2f contracted to 5s4p3d2f pattern {88111/3111/111/11}
 Group   2 Type O   : 19s6p3d2f contracted to 5s4p3d2f pattern {88111/3111/111/11}
 Group   3 Type H   : 6s3p2d contracted to 4s3p2d pattern {3111/111/11}

Atom   0C    basis set group =>   1
Atom   1O    basis set group =>   2
Atom   2C    basis set group =>   1
Atom   3H    basis set group =>   3
Atom   4H    basis set group =>   3
Atom   5H    basis set group =>   3
Atom   6H    basis set group =>   3
Atom   7H    basis set group =>   3
Atom   8H    basis set group =>   3


           ************************************************************
           *        Program running with 16 parallel MPI-processes    *
           *              working on a common directory               *
           ************************************************************
------------------------------------------------------------------------------
                           ORCA GTO INTEGRAL CALCULATION
------------------------------------------------------------------------------

                         BASIS SET STATISTICS AND STARTUP INFO

 # of primitive gaussian shells          ...  156
 # of primitive gaussian functions       ...  348
 # of contracted shells                  ...   96
 # of contracted basis functions         ...  276
 Highest angular momentum                ...    3
 Maximum contraction depth               ...    8
 Integral package used                   ... LIBINT
 Integral threshhold            Thresh   ...  2.500e-11
 Primitive cut-off              TCut     ...  2.500e-12


------------------------------ INTEGRAL EVALUATION ----------------------------


 * One electron integrals 
 Pre-screening matrix                    ... done
 Shell pair data                         ... done (   0.002 sec)



           ************************************************************
           *        Program running with 16 parallel MPI-processes    *
           *              working on a common directory               *
           ************************************************************
-------------------------------------------------------------------------------
                                 ORCA SCF
-------------------------------------------------------------------------------

------------
SCF SETTINGS
------------
Hamiltonian:
 Ab initio Hamiltonian  Method          .... Hartree-Fock(GTOs)


General Settings:
 Integral files         IntName         .... dimethyl_ether_CCSD_aug-cc-pVTZ_SPE
 Hartree-Fock type      HFTyp           .... RHF
 Total Charge           Charge          ....    0
 Multiplicity           Mult            ....    1
 Number of Electrons    NEL             ....   26
 Basis Dimension        Dim             ....  276
 Nuclear Repulsion      ENuc            ....     84.1040764406 Eh

Convergence Acceleration:
 DIIS                   CNVDIIS         .... on
   Start iteration      DIISMaxIt       ....    12
   Startup error        DIISStart       ....  0.200000
   # of expansion vecs  DIISMaxEq       ....     5
   Bias factor          DIISBfac        ....   1.050
   Max. coefficient     DIISMaxC        ....  10.000
 Newton-Raphson         CNVNR           .... off
 SOSCF                  CNVSOSCF        .... on
   Start iteration      SOSCFMaxIt      ....   150
   Startup grad/error   SOSCFStart      ....  0.003300
 Level Shifting         CNVShift        .... on
   Level shift para.    LevelShift      ....    0.2500
   Turn off err/grad.   ShiftErr        ....    0.0010
 Zerner damping         CNVZerner       .... off
 Static damping         CNVDamp         .... on
   Fraction old density DampFac         ....    0.7000
   Max. Damping (<1)    DampMax         ....    0.9800
   Min. Damping (>=0)   DampMin         ....    0.0000
   Turn off err/grad.   DampErr         ....    0.1000
 Fernandez-Rico         CNVRico         .... off

SCF Procedure:
 Maximum # iterations   MaxIter         ....   125
 SCF integral mode      SCFMode         .... Direct
   Integral package                     .... LIBINT
 Reset frequency        DirectResetFreq ....    20
 Integral Threshold     Thresh          ....  2.500e-11 Eh
 Primitive CutOff       TCut            ....  2.500e-12 Eh

Convergence Tolerance:
 Convergence Check Mode ConvCheckMode   .... Total+1el-Energy
 Convergence forced     ConvForced      .... 1
 Energy Change          TolE            ....  1.000e-08 Eh
 1-El. energy change                    ....  1.000e-05 Eh
 Orbital Gradient       TolG            ....  1.000e-05
 Orbital Rotation angle TolX            ....  1.000e-05
 DIIS Error             TolErr          ....  5.000e-07


Diagonalization of the overlap matrix:
Smallest eigenvalue                        ... 2.628e-05
Time for diagonalization                   ...    0.018 sec
Threshold for overlap eigenvalues          ... 1.000e-08
Number of eigenvalues below threshold      ... 0
Time for construction of square roots      ...    0.026 sec
Total time needed                          ...    0.044 sec

-------------------
DFT GRID GENERATION
-------------------

General Integration Accuracy     IntAcc      ...  4.340
Radial Grid Type                 RadialGrid  ... Gauss-Chebyshev
Angular Grid (max. acc.)         AngularGrid ... Lebedev-110
Angular grid pruning method      GridPruning ... 3 (G Style)
Weight generation scheme         WeightScheme... Becke
Basis function cutoff            BFCut       ...    1.0000e-11
Integration weight cutoff        WCut        ...    1.0000e-14
Grids for H and He will be reduced by one unit

# of grid points (after initial pruning)     ...   9792 (   0.0 sec)
# of grid points (after weights+screening)   ...   9363 (   0.0 sec)
nearest neighbour list constructed           ...    0.0 sec
Grid point re-assignment to atoms done       ...    0.0 sec
Grid point division into batches done        ...    0.0 sec
Reduced shell lists constructed in    0.0 sec

Total number of grid points                  ...     9363
Total number of batches                      ...      151
Average number of points per batch           ...       62
Average number of grid points per atom       ...     1040
Average number of shells per batch           ...    85.09 (88.64%)
Average number of basis functions per batch  ...   245.09 (88.80%)
Average number of large shells per batch     ...    78.73 (92.52%)
Average number of large basis fcns per batch ...   226.36 (92.36%)
Maximum spatial batch extension              ...   2.16,  2.12,  2.11 au
Average spatial batch extension              ...   0.09,  0.10,  0.10 au

Time for grid setup =    0.020 sec

------------------------------
INITIAL GUESS: MODEL POTENTIAL
------------------------------
Loading Hartree-Fock densities                     ... done
Calculating cut-offs                               ... done
Setting up the integral package                    ... done
Initializing the effective Hamiltonian             ... done
Starting the Coulomb interaction                   ... done (   0.0 sec)
Reading the grid                                   ... done
Mapping shells                                     ... done
Starting the XC term evaluation                    ... done (   0.0 sec)
Transforming the Hamiltonian                       ... done (   0.0 sec)
Diagonalizing the Hamiltonian                      ... done (   0.0 sec)
Back transforming the eigenvectors                 ... done (   0.0 sec)
Now organizing SCF variables                       ... done
                      ------------------
                      INITIAL GUESS DONE (   0.2 sec)
                      ------------------
--------------
SCF ITERATIONS
--------------
ITER       Energy         Delta-E        Max-DP      RMS-DP      [F,P]     Damp
               ***  Starting incremental Fock matrix formation  ***
  0   -153.9799665856   0.000000000000 0.02767243  0.00058092  0.2071547 0.7000
  1   -154.0307843862  -0.050817800633 0.02033247  0.00044057  0.1457511 0.7000
                               ***Turning on DIIS***
  2   -154.0622401169  -0.031455730673 0.01480886  0.00031050  0.1095179 0.7000
  3   -154.4542042894  -0.391964172571 0.03725178  0.00079612  0.0812588 0.0000
  4   -154.1016040205   0.352600268917 0.00453591  0.00011765  0.0056091 0.0000
                      *** Initiating the SOSCF procedure ***
                           *** Shutting down DIIS ***
                      *** Re-Reading the Fockian *** 
                      *** Removing any level shift *** 
ITER      Energy       Delta-E        Grad      Rot      Max-DP    RMS-DP
  5   -154.12705764  -0.0254536239  0.001122  0.001122  0.001739  0.000042
               *** Restarting incremental Fock matrix formation ***
  6   -154.12850764  -0.0014499934  0.000349  0.000307  0.000637  0.000013
  7   -154.12851262  -0.0000049857  0.000129  0.000209  0.000265  0.000007
  8   -154.12851345  -0.0000008313  0.000046  0.000046  0.000049  0.000001
  9   -154.12851351  -0.0000000565  0.000007  0.000007  0.000016  0.000000
 10   -154.12851351  -0.0000000015  0.000003  0.000003  0.000004  0.000000
                  ***Gradient check signals convergence***
              ***Rediagonalizing the Fockian in SOSCF/NRSCF***

               *****************************************************
               *                     SUCCESS                       *
               *           SCF CONVERGED AFTER  11 CYCLES          *
               *****************************************************


----------------
TOTAL SCF ENERGY
----------------

Total Energy       :         -154.12851351 Eh           -4194.05007 eV

Components:
Nuclear Repulsion  :           84.10407644 Eh            2288.58827 eV
Electronic Energy  :         -238.23258995 Eh           -6482.63834 eV
One Electron Energy:         -375.97775662 Eh          -10230.87489 eV
Two Electron Energy:          137.74516667 Eh            3748.23654 eV

Virial components:
Potential Energy   :         -308.03561747 Eh           -8382.07529 eV
Kinetic Energy     :          153.90710396 Eh            4188.02521 eV
Virial Ratio       :            2.00143859


---------------
SCF CONVERGENCE
---------------

  Last Energy change         ...   -6.1357e-10  Tolerance :   1.0000e-08
  Last MAX-Density change    ...    1.0760e-06  Tolerance :   1.0000e-07
  Last RMS-Density change    ...    2.7116e-08  Tolerance :   5.0000e-09
  Last Orbital Gradient      ...    5.0474e-07  Tolerance :   1.0000e-05
  Last Orbital Rotation      ...    7.0361e-07  Tolerance :   1.0000e-05

             **** THE GBW FILE WAS UPDATED (dimethyl_ether_CCSD_aug-cc-pVTZ_SPE.gbw) ****
             **** DENSITY FILE WAS UPDATED (dimethyl_ether_CCSD_aug-cc-pVTZ_SPE.scfp) ****
             **** ENERGY FILE WAS UPDATED (dimethyl_ether_CCSD_aug-cc-pVTZ_SPE.en.tmp) ****
             **** THE GBW FILE WAS UPDATED (dimethyl_ether_CCSD_aug-cc-pVTZ_SPE.gbw) ****
             **** DENSITY FILE WAS UPDATED (dimethyl_ether_CCSD_aug-cc-pVTZ_SPE.scfp) ****
----------------
ORBITAL ENERGIES
----------------

  NO   OCC          E(Eh)            E(eV) 
   0   2.0000     -20.556991      -559.3842 
   1   2.0000     -11.268345      -306.6273 
   2   2.0000     -11.268326      -306.6267 
   3   2.0000      -1.372731       -37.3539 
   4   2.0000      -0.967390       -26.3240 
   5   2.0000      -0.876116       -23.8403 
   6   2.0000      -0.659957       -17.9583 
   7   2.0000      -0.650805       -17.7093 
   8   2.0000      -0.638068       -17.3627 
   9   2.0000      -0.549911       -14.9638 
  10   2.0000      -0.525686       -14.3046 
  11   2.0000      -0.483972       -13.1695 
  12   2.0000      -0.425409       -11.5760 
  13   0.0000       0.030378         0.8266 
  14   0.0000       0.040474         1.1014 
  15   0.0000       0.045494         1.2380 
  16   0.0000       0.047398         1.2898 
  17   0.0000       0.062833         1.7098 
  18   0.0000       0.064766         1.7624 
  19   0.0000       0.089233         2.4281 
  20   0.0000       0.118942         3.2366 
  21   0.0000       0.122865         3.3433 
  22   0.0000       0.129385         3.5208 
  23   0.0000       0.140271         3.8170 
  24   0.0000       0.143466         3.9039 
  25   0.0000       0.149202         4.0600 
  26   0.0000       0.174454         4.7471 
  27   0.0000       0.174729         4.7546 
  28   0.0000       0.200988         5.4692 
  29   0.0000       0.226727         6.1696 
  30   0.0000       0.228850         6.2273 
  31   0.0000       0.230717         6.2781 
  32   0.0000       0.244977         6.6662 
  33   0.0000       0.248502         6.7621 
  34   0.0000       0.300526         8.1777 
  35   0.0000       0.304373         8.2824 
  36   0.0000       0.314110         8.5474 
  37   0.0000       0.317702         8.6451 
  38   0.0000       0.318923         8.6783 
  39   0.0000       0.326730         8.8908 
  40   0.0000       0.340661         9.2698 
  41   0.0000       0.344692         9.3795 
  42   0.0000       0.362840         9.8734 
  43   0.0000       0.368349        10.0233 
  44   0.0000       0.369755        10.0615 
  45   0.0000       0.374562        10.1923 
  46   0.0000       0.382645        10.4123 
  47   0.0000       0.408684        11.1209 
  48   0.0000       0.408692        11.1211 
  49   0.0000       0.427588        11.6353 
  50   0.0000       0.435402        11.8479 
  51   0.0000       0.438754        11.9391 
  52   0.0000       0.448337        12.1999 
  53   0.0000       0.457983        12.4623 
  54   0.0000       0.459762        12.5108 
  55   0.0000       0.476546        12.9675 
  56   0.0000       0.479605        13.0507 
  57   0.0000       0.483268        13.1504 
  58   0.0000       0.490814        13.3557 
  59   0.0000       0.493887        13.4394 
  60   0.0000       0.503248        13.6941 
  61   0.0000       0.537481        14.6256 
  62   0.0000       0.540664        14.7122 
  63   0.0000       0.571598        15.5540 
  64   0.0000       0.574226        15.6255 
  65   0.0000       0.609474        16.5846 
  66   0.0000       0.616364        16.7721 
  67   0.0000       0.679414        18.4878 
  68   0.0000       0.691704        18.8222 
  69   0.0000       0.701125        19.0786 
  70   0.0000       0.757737        20.6191 
  71   0.0000       0.782638        21.2967 
  72   0.0000       0.788203        21.4481 
  73   0.0000       0.799377        21.7521 
  74   0.0000       0.804976        21.9045 
  75   0.0000       0.808453        21.9991 
  76   0.0000       0.836260        22.7558 
  77   0.0000       0.839862        22.8538 
  78   0.0000       0.846265        23.0280 
  79   0.0000       0.851929        23.1822 
  80   0.0000       0.887263        24.1437 
  81   0.0000       0.890250        24.2249 
  82   0.0000       0.913074        24.8460 
  83   0.0000       0.924253        25.1502 
  84   0.0000       0.929085        25.2817 
  85   0.0000       0.938701        25.5433 
  86   0.0000       0.960190        26.1281 
  87   0.0000       0.961531        26.1646 
  88   0.0000       0.979013        26.6403 
  89   0.0000       0.995030        27.0761 
  90   0.0000       0.996580        27.1183 
  91   0.0000       1.017197        27.6793 
  92   0.0000       1.028115        27.9764 
  93   0.0000       1.054233        28.6871 
  94   0.0000       1.082975        29.4692 
  95   0.0000       1.089905        29.6578 
  96   0.0000       1.091114        29.6907 
  97   0.0000       1.093648        29.7597 
  98   0.0000       1.103802        30.0360 
  99   0.0000       1.124469        30.5983 
 100   0.0000       1.139551        31.0088 
 101   0.0000       1.158394        31.5215 
 102   0.0000       1.177854        32.0510 
 103   0.0000       1.184775        32.2394 
 104   0.0000       1.187570        32.3154 
 105   0.0000       1.201667        32.6990 
 106   0.0000       1.213771        33.0284 
 107   0.0000       1.226765        33.3820 
 108   0.0000       1.237991        33.6874 
 109   0.0000       1.240929        33.7674 
 110   0.0000       1.241196        33.7747 
 111   0.0000       1.295855        35.2620 
 112   0.0000       1.307754        35.5858 
 113   0.0000       1.322572        35.9890 
 114   0.0000       1.354400        36.8551 
 115   0.0000       1.408690        38.3324 
 116   0.0000       1.411926        38.4205 
 117   0.0000       1.440031        39.1852 
 118   0.0000       1.455520        39.6067 
 119   0.0000       1.501699        40.8633 
 120   0.0000       1.511603        41.1328 
 121   0.0000       1.516130        41.2560 
 122   0.0000       1.571402        42.7600 
 123   0.0000       1.583635        43.0929 
 124   0.0000       1.601581        43.5812 
 125   0.0000       1.607496        43.7422 
 126   0.0000       1.625742        44.2387 
 127   0.0000       1.631346        44.3912 
 128   0.0000       1.659479        45.1567 
 129   0.0000       1.681775        45.7634 
 130   0.0000       1.696184        46.1555 
 131   0.0000       1.702937        46.3393 
 132   0.0000       1.705958        46.4215 
 133   0.0000       1.727012        46.9944 
 134   0.0000       1.728798        47.0430 
 135   0.0000       1.734880        47.2085 
 136   0.0000       1.781614        48.4802 
 137   0.0000       1.801004        49.0078 
 138   0.0000       1.836088        49.9625 
 139   0.0000       1.868739        50.8510 
 140   0.0000       1.894877        51.5622 
 141   0.0000       1.900829        51.7242 
 142   0.0000       1.916131        52.1406 
 143   0.0000       1.950569        53.0777 
 144   0.0000       1.995314        54.2953 
 145   0.0000       2.005819        54.5811 
 146   0.0000       2.008098        54.6431 
 147   0.0000       2.029094        55.2144 
 148   0.0000       2.109729        57.4086 
 149   0.0000       2.113524        57.5119 
 150   0.0000       2.159591        58.7655 
 151   0.0000       2.170011        59.0490 
 152   0.0000       2.186116        59.4872 
 153   0.0000       2.186467        59.4968 
 154   0.0000       2.203524        59.9609 
 155   0.0000       2.256942        61.4145 
 156   0.0000       2.304427        62.7066 
 157   0.0000       2.305340        62.7315 
 158   0.0000       2.406491        65.4839 
 159   0.0000       2.409629        65.5694 
 160   0.0000       2.585101        70.3442 
 161   0.0000       2.596854        70.6640 
 162   0.0000       2.686835        73.1125 
 163   0.0000       2.713446        73.8366 
 164   0.0000       2.742773        74.6347 
 165   0.0000       2.745299        74.7034 
 166   0.0000       2.793689        76.0201 
 167   0.0000       2.875233        78.2391 
 168   0.0000       2.905565        79.0644 
 169   0.0000       3.004706        81.7622 
 170   0.0000       3.046747        82.9062 
 171   0.0000       3.064177        83.3805 
 172   0.0000       3.137341        85.3714 
 173   0.0000       3.152459        85.7828 
 174   0.0000       3.182317        86.5952 
 175   0.0000       3.283460        89.3475 
 176   0.0000       3.356369        91.3314 
 177   0.0000       3.380091        91.9769 
 178   0.0000       3.409173        92.7683 
 179   0.0000       3.435117        93.4743 
 180   0.0000       3.575037        97.2817 
 181   0.0000       3.575331        97.2897 
 182   0.0000       3.597403        97.8903 
 183   0.0000       3.619980        98.5047 
 184   0.0000       3.623183        98.5918 
 185   0.0000       3.700075       100.6842 
 186   0.0000       3.705648       100.8358 
 187   0.0000       3.721171       101.2582 
 188   0.0000       3.740146       101.7746 
 189   0.0000       3.771148       102.6182 
 190   0.0000       3.782431       102.9252 
 191   0.0000       3.823240       104.0357 
 192   0.0000       3.853414       104.8567 
 193   0.0000       3.886885       105.7675 
 194   0.0000       3.901888       106.1758 
 195   0.0000       3.959761       107.7506 
 196   0.0000       3.977395       108.2304 
 197   0.0000       3.995745       108.7298 
 198   0.0000       4.004881       108.9783 
 199   0.0000       4.031687       109.7078 
 200   0.0000       4.048499       110.1653 
 201   0.0000       4.068137       110.6996 
 202   0.0000       4.131694       112.4291 
 203   0.0000       4.169766       113.4651 
 204   0.0000       4.172403       113.5369 
 205   0.0000       4.172464       113.5385 
 206   0.0000       4.199283       114.2683 
 207   0.0000       4.249569       115.6366 
 208   0.0000       4.252027       115.7035 
 209   0.0000       4.271466       116.2325 
 210   0.0000       4.326024       117.7171 
 211   0.0000       4.335812       117.9834 
 212   0.0000       4.352519       118.4381 
 213   0.0000       4.449987       121.0903 
 214   0.0000       4.547047       123.7314 
 215   0.0000       4.591357       124.9372 
 216   0.0000       4.595904       125.0609 
 217   0.0000       4.612470       125.5117 
 218   0.0000       4.630995       126.0158 
 219   0.0000       4.639723       126.2533 
 220   0.0000       4.719397       128.4213 
 221   0.0000       4.730396       128.7206 
 222   0.0000       4.760809       129.5482 
 223   0.0000       4.790868       130.3661 
 224   0.0000       4.806327       130.7868 
 225   0.0000       4.877560       132.7252 
 226   0.0000       4.887245       132.9887 
 227   0.0000       4.933419       134.2452 
 228   0.0000       4.934463       134.2736 
 229   0.0000       5.015011       136.4654 
 230   0.0000       5.023524       136.6970 
 231   0.0000       5.030117       136.8764 
 232   0.0000       5.054498       137.5399 
 233   0.0000       5.164652       140.5373 
 234   0.0000       5.191560       141.2695 
 235   0.0000       5.256167       143.0276 
 236   0.0000       5.261075       143.1611 
 237   0.0000       5.363425       145.9462 
 238   0.0000       5.365506       146.0028 
 239   0.0000       5.381113       146.4275 
 240   0.0000       5.490126       149.3939 
 241   0.0000       5.521153       150.2382 
 242   0.0000       5.597527       152.3165 
 243   0.0000       5.609756       152.6492 
 244   0.0000       5.614937       152.7902 
 245   0.0000       5.678293       154.5142 
 246   0.0000       5.698792       155.0720 
 247   0.0000       5.701356       155.1418 
 248   0.0000       5.722044       155.7047 
 249   0.0000       5.983091       162.8082 
 250   0.0000       6.081086       165.4748 
 251   0.0000       6.083478       165.5399 
 252   0.0000       6.091792       165.7661 
 253   0.0000       6.105837       166.1483 
 254   0.0000       6.148941       167.3212 
 255   0.0000       6.274528       170.7386 
 256   0.0000       6.598853       179.5639 
 257   0.0000       6.608266       179.8201 
 258   0.0000       6.645552       180.8347 
 259   0.0000       6.695555       182.1953 
 260   0.0000       6.776891       184.4086 
 261   0.0000       6.970375       189.6735 
 262   0.0000       7.003020       190.5619 
 263   0.0000       7.169167       195.0830 
 264   0.0000       7.211054       196.2228 
 265   0.0000       7.385082       200.9583 
 266   0.0000       7.428073       202.1281 
 267   0.0000       7.632370       207.6873 
 268   0.0000       7.677893       208.9261 
 269   0.0000       7.715588       209.9518 
 270   0.0000       7.900307       214.9783 
 271   0.0000       8.293287       225.6718 
 272   0.0000       8.369397       227.7429 
 273   0.0000      15.012366       408.5072 
 274   0.0000      17.712018       481.9685 
 275   0.0000      17.889165       486.7889 

                    ********************************
                    * MULLIKEN POPULATION ANALYSIS *
                    ********************************

-----------------------
MULLIKEN ATOMIC CHARGES
-----------------------
   0 C :   -0.739202
   1 O :   -0.520740
   2 C :   -0.739210
   3 H :    0.323139
   4 H :    0.353285
   5 H :    0.323147
   6 H :    0.323148
   7 H :    0.353284
   8 H :    0.323149
Sum of atomic charges:   -0.0000000

--------------------------------
MULLIKEN REDUCED ORBITAL CHARGES
--------------------------------
  0 C s       :     3.277965  s :     3.277965
      pz      :     1.260220  p :     3.191821
      px      :     0.706645
      py      :     1.224956
      dz2     :     0.042194  d :     0.244379
      dxz     :     0.060642
      dyz     :     0.042113
      dx2y2   :     0.033394
      dxy     :     0.066036
      f0      :     0.003106  f :     0.025037
      f+1     :     0.002338
      f-1     :     0.003429
      f+2     :     0.004906
      f-2     :     0.001332
      f+3     :     0.002978
      f-3     :     0.006947
  1 O s       :     3.840464  s :     3.840464
      pz      :     1.532990  p :     4.631018
      px      :     1.312243
      py      :     1.785785
      dz2     :     0.010169  d :     0.045163
      dxz     :     0.010274
      dyz     :     0.007133
      dx2y2   :     0.011265
      dxy     :     0.006321
      f0      :     0.000559  f :     0.004095
      f+1     :     0.000562
      f-1     :     0.000902
      f+2     :     0.000620
      f-2     :     0.000264
      f+3     :     0.000701
      f-3     :     0.000486
  2 C s       :     3.277969  s :     3.277969
      pz      :     0.870809  p :     3.191825
      px      :     1.225852
      py      :     1.095163
      dz2     :     0.083635  d :     0.244379
      dxz     :     0.023983
      dyz     :     0.039097
      dx2y2   :     0.086273
      dxy     :     0.011392
      f0      :     0.002709  f :     0.025037
      f+1     :     0.006955
      f-1     :     0.004325
      f+2     :     0.002652
      f-2     :     0.003966
      f+3     :     0.003911
      f-3     :     0.000519
  3 H s       :     0.632222  s :     0.632222
      pz      :     0.009342  p :     0.042068
      px      :     0.010024
      py      :     0.022702
      dz2     :    -0.000826  d :     0.002571
      dxz     :     0.000733
      dyz     :     0.003022
      dx2y2   :     0.000308
      dxy     :    -0.000668
  4 H s       :     0.590434  s :     0.590434
      pz      :     0.029636  p :     0.055711
      px      :     0.007726
      py      :     0.018348
      dz2     :     0.001301  d :     0.000570
      dxz     :    -0.000419
      dyz     :     0.000080
      dx2y2   :    -0.000344
      dxy     :    -0.000048
  5 H s       :     0.632213  s :     0.632213
      pz      :     0.020094  p :     0.042070
      px      :     0.010024
      py      :     0.011951
      dz2     :     0.001860  d :     0.002570
      dxz     :    -0.000658
      dyz     :     0.000467
      dx2y2   :     0.000178
      dxy     :     0.000723
  6 H s       :     0.632211  s :     0.632211
      pz      :     0.016711  p :     0.042070
      px      :     0.011737
      py      :     0.013622
      dz2     :    -0.001234  d :     0.002571
      dxz     :     0.001228
      dyz     :     0.000750
      dx2y2   :     0.001626
      dxy     :     0.000201
  7 H s       :     0.590433  s :     0.590433
      pz      :     0.008921  p :     0.055713
      px      :     0.035343
      py      :     0.011448
      dz2     :     0.000294  d :     0.000570
      dxz     :    -0.000117
      dyz     :    -0.000020
      dx2y2   :    -0.001118
      dxy     :     0.001532
  8 H s       :     0.632208  s :     0.632208
      pz      :     0.010162  p :     0.042072
      px      :     0.011733
      py      :     0.020177
      dz2     :     0.000493  d :     0.002570
      dxz     :    -0.000065
      dyz     :     0.000688
      dx2y2   :    -0.000041
      dxy     :     0.001496


                     *******************************
                     * LOEWDIN POPULATION ANALYSIS *
                     *******************************

----------------------
LOEWDIN ATOMIC CHARGES
----------------------
   0 C :    0.298352
   1 O :    0.518417
   2 C :    0.298367
   3 H :   -0.183582
   4 H :   -0.190405
   5 H :   -0.183581
   6 H :   -0.183583
   7 H :   -0.190404
   8 H :   -0.183582

-------------------------------
LOEWDIN REDUCED ORBITAL CHARGES
-------------------------------
  0 C s       :     2.464028  s :     2.464028
      pz      :     0.794031  p :     2.195181
      px      :     0.613897
      py      :     0.787253
      dz2     :     0.107562  d :     0.713038
      dxz     :     0.177228
      dyz     :     0.076591
      dx2y2   :     0.161083
      dxy     :     0.190575
      f0      :     0.037532  f :     0.329400
      f+1     :     0.041534
      f-1     :     0.020461
      f+2     :     0.061428
      f-2     :     0.013378
      f+3     :     0.060582
      f-3     :     0.094486
  1 O s       :     3.012687  s :     3.012687
      pz      :     1.310824  p :     3.911917
      px      :     1.191266
      py      :     1.409827
      dz2     :     0.089253  d :     0.437278
      dxz     :     0.119371
      dyz     :     0.051373
      dx2y2   :     0.090345
      dxy     :     0.086935
      f0      :     0.027564  f :     0.119701
      f+1     :     0.011811
      f-1     :     0.009817
      f+2     :     0.027872
      f-2     :     0.008436
      f+3     :     0.009780
      f-3     :     0.024422
  2 C s       :     2.464030  s :     2.464030
      pz      :     0.672987  p :     2.195179
      px      :     0.775281
      py      :     0.746911
      dz2     :     0.225380  d :     0.713027
      dxz     :     0.097234
      dyz     :     0.154983
      dx2y2   :     0.175037
      dxy     :     0.060393
      f0      :     0.066781  f :     0.329396
      f+1     :     0.050440
      f-1     :     0.067842
      f+2     :     0.056540
      f-2     :     0.046872
      f+3     :     0.025134
      f-3     :     0.015788
  3 H s       :     0.659407  s :     0.659407
      pz      :     0.087008  p :     0.301261
      px      :     0.065235
      py      :     0.149018
      dz2     :     0.016048  d :     0.222915
      dxz     :     0.010114
      dyz     :     0.084568
      dx2y2   :     0.067060
      dxy     :     0.045125
  4 H s       :     0.667353  s :     0.667353
      pz      :     0.131899  p :     0.298435
      px      :     0.064178
      py      :     0.102358
      dz2     :     0.077217  d :     0.224616
      dxz     :     0.039687
      dyz     :     0.049450
      dx2y2   :     0.039716
      dxy     :     0.018546
  5 H s       :     0.659410  s :     0.659410
      pz      :     0.135973  p :     0.301259
      px      :     0.065232
      py      :     0.100054
      dz2     :     0.077064  d :     0.222912
      dxz     :     0.037482
      dyz     :     0.048874
      dx2y2   :     0.041735
      dxy     :     0.017757
  6 H s       :     0.659408  s :     0.659408
      pz      :     0.112496  p :     0.301261
      px      :     0.094827
      py      :     0.093937
      dz2     :     0.059893  d :     0.222914
      dxz     :     0.051978
      dyz     :     0.051404
      dx2y2   :     0.045034
      dxy     :     0.014605
  7 H s       :     0.667354  s :     0.667354
      pz      :     0.069597  p :     0.298434
      px      :     0.147241
      py      :     0.081597
      dz2     :     0.021553  d :     0.224616
      dxz     :     0.074580
      dyz     :     0.006636
      dx2y2   :     0.042749
      dxy     :     0.079099
  8 H s       :     0.659411  s :     0.659411
      pz      :     0.066103  p :     0.301258
      px      :     0.094820
      py      :     0.140335
      dz2     :     0.020793  d :     0.222913
      dxz     :     0.005425
      dyz     :     0.073603
      dx2y2   :     0.061929
      dxy     :     0.061163


                      *****************************
                      * MAYER POPULATION ANALYSIS *
                      *****************************

  NA   - Mulliken gross atomic population
  ZA   - Total nuclear charge
  QA   - Mulliken gross atomic charge
  VA   - Mayer's total valence
  BVA  - Mayer's bonded valence
  FA   - Mayer's free valence

  ATOM       NA         ZA         QA         VA         BVA        FA
  0 C      6.7392     6.0000    -0.7392     3.6332     3.6332    -0.0000
  1 O      8.5207     8.0000    -0.5207     1.8501     1.8501    -0.0000
  2 C      6.7392     6.0000    -0.7392     3.6332     3.6332    -0.0000
  3 H      0.6769     1.0000     0.3231     0.9790     0.9790    -0.0000
  4 H      0.6467     1.0000     0.3533     1.0191     1.0191    -0.0000
  5 H      0.6769     1.0000     0.3231     0.9790     0.9790    -0.0000
  6 H      0.6769     1.0000     0.3231     0.9790     0.9790    -0.0000
  7 H      0.6467     1.0000     0.3533     1.0191     1.0191    -0.0000
  8 H      0.6769     1.0000     0.3231     0.9790     0.9790    -0.0000

  Mayer bond orders larger than 0.100000
B(  0-C ,  1-O ) :   0.9059 B(  0-C ,  3-H ) :   0.8844 B(  0-C ,  4-H ) :   0.9149 
B(  0-C ,  5-H ) :   0.8844 B(  1-O ,  2-C ) :   0.9059 B(  2-C ,  6-H ) :   0.8844 
B(  2-C ,  7-H ) :   0.9149 B(  2-C ,  8-H ) :   0.8844 

-------
TIMINGS
-------

Total SCF time: 0 days 0 hours 0 min 18 sec 

Total time                  ....      18.111 sec
Sum of individual times     ....      17.672 sec  ( 97.6%)

Fock matrix formation       ....      16.741 sec  ( 92.4%)
Diagonalization             ....       0.178 sec  (  1.0%)
Density matrix formation    ....       0.048 sec  (  0.3%)
Population analysis         ....       0.028 sec  (  0.2%)
Initial guess               ....       0.184 sec  (  1.0%)
Orbital Transformation      ....       0.000 sec  (  0.0%)
Orbital Orthonormalization  ....       0.000 sec  (  0.0%)
DIIS solution               ....       0.093 sec  (  0.5%)
SOSCF solution              ....       0.381 sec  (  2.1%)


           ************************************************************
           *        Program running with 16 parallel MPI-processes    *
           *              working on a common directory               *
           ************************************************************


------------------------------------------------------------------------------- 
                              ORCA-MATRIX DRIVEN CI                            
------------------------------------------------------------------------------- 

--------------------------------
AUTOMATIC CHOICE OF INCORE LEVEL
--------------------------------

Memory available                           ...    500.00 MB
Memory needed for S+T                      ...     87.07 MB
Memory needed for J+K                      ...    174.37 MB
Memory needed for DIIS                     ...   1219.03 MB
Memory needed for 3-ext                    ...   1387.90 MB
Memory needed for 4-ext                    ...  18320.24 MB
Memory needed for triples                  ...      0.00 MB
 -> Final InCoreLevel    ... 2

Wavefunction type
-----------------
Correlation treatment                      ...      CCSD     
Single excitations                         ... ON
Orbital optimization                       ... OFF
Calculation of Z vector                    ... OFF
Calculation of Brueckner orbitals          ... OFF
Perturbative triple excitations            ... OFF
Calculation of F12 correction              ... OFF
Frozen core treatment                      ... chemical core (6 el)
Reference Wavefunction                     ... RHF
  Internal Orbitals:     3 ...   12 ( 10 MO's/ 20 electrons)
  Virtual  Orbitals:    13 ...  275 (263 MO's              )
Number of AO's                             ...    276
Number of electrons                        ...     26
Number of correlated electrons             ...     20

Algorithmic settings
--------------------
Integral transformation                    ... AO direct full transformation
K(C) Formation                             ... FULL-MO TRAFO
Maximum number of iterations               ...        50
Convergence tolerance (max. residuum)      ... 1.000e-05
Level shift for amplitude update           ... 2.000e-01
Maximum number of DIIS vectors             ...         7
DIIS turned on at iteration                ...         0
Damping before turning on DIIS             ...     0.500
Damping after turning on DIIS              ...     0.000
Pair specific amplitude update             ... OFF
Natural orbital iterations                 ... OFF
Perturbative natural orbital generation    ... OFF
Printlevel                                 ... 2

Memory handling:
----------------
Maximum memory for working arrays          ...    500 MB
Data storage in matrix containers          ... UNCOMPRESSED
Data type for integral storage             ... DOUBLE
In-Core Storage of quantities:
   Amplitudes+Sigma Vector      ... YES
   J+K operators                ... YES
   DIIS vectors                 ... NO
   3-external integrals         ... NO
   4-external integrals         ... NO


Initializing the integral package          ... done
Warning: reference  - re-canonicalizations have been set to INT 1 VIRT 1

--------------------------
CLOSED-SHELL FOCK OPERATOR
--------------------------

<ss|ss>:       300700 b         3345 skpd (  1.1%)    0.017 s ( 0.000 ms/b)
<ss|sp>:       899000 b        12463 skpd (  1.4%)    0.058 s ( 0.000 ms/b)
<ss|sd>:       633175 b        13516 skpd (  2.1%)    0.050 s ( 0.000 ms/b)
<ss|sf>:       181350 b         1386 skpd (  0.8%)    0.026 s ( 0.000 ms/b)
<ss|pp>:       356500 b         5977 skpd (  1.7%)    0.025 s ( 0.000 ms/b)
<ss|pd>:       486700 b        12849 skpd (  2.6%)    0.050 s ( 0.000 ms/b)
<ss|pf>:       139500 b         1195 skpd (  0.9%)    0.021 s ( 0.000 ms/b)
<ss|dd>:       179025 b         5450 skpd (  3.0%)    0.025 s ( 0.000 ms/b)
<ss|df>:        97650 b          845 skpd (  0.9%)    0.021 s ( 0.000 ms/b)
<ss|ff>:        16275 b           88 skpd (  0.5%)    0.008 s ( 0.000 ms/b)
<sp|sp>:       673380 b        11331 skpd (  1.7%)    0.052 s ( 0.000 ms/b)
<sp|sd>:       947720 b        23284 skpd (  2.5%)    0.087 s ( 0.000 ms/b)
<sp|sf>:       271440 b         2817 skpd (  1.0%)    0.033 s ( 0.000 ms/b)
<sp|pp>:       533600 b        10592 skpd (  2.0%)    0.041 s ( 0.000 ms/b)
<sp|pd>:       728480 b        21687 skpd (  3.0%)    0.089 s ( 0.000 ms/b)
<sp|pf>:       208800 b         2501 skpd (  1.2%)    0.035 s ( 0.000 ms/b)
<sp|dd>:       267960 b         9166 skpd (  3.4%)    0.043 s ( 0.000 ms/b)
<sp|df>:       146160 b         1669 skpd (  1.1%)    0.036 s ( 0.000 ms/b)
<sp|ff>:        24360 b          185 skpd (  0.8%)    0.013 s ( 0.001 ms/b)
<sd|sd>:       334153 b        10676 skpd (  3.2%)    0.038 s ( 0.000 ms/b)
<sd|sf>:       191178 b         3252 skpd (  1.7%)    0.042 s ( 0.000 ms/b)
<sd|pp>:       375820 b        10304 skpd (  2.7%)    0.049 s ( 0.000 ms/b)
<sd|pd>:       513076 b        19538 skpd (  3.8%)    0.104 s ( 0.000 ms/b)
<sd|pf>:       147060 b         2697 skpd (  1.8%)    0.046 s ( 0.000 ms/b)
<sd|dd>:       188727 b         8140 skpd (  4.3%)    0.062 s ( 0.000 ms/b)
<sd|df>:       102942 b         1825 skpd (  1.8%)    0.051 s ( 0.001 ms/b)
<sd|ff>:        17157 b          244 skpd (  1.4%)    0.020 s ( 0.001 ms/b)
<sf|sf>:        27495 b           64 skpd (  0.2%)    0.015 s ( 0.001 ms/b)
<sf|pp>:       107640 b         1437 skpd (  1.3%)    0.026 s ( 0.000 ms/b)
<sf|pd>:       146952 b         3394 skpd (  2.3%)    0.056 s ( 0.000 ms/b)
<sf|pf>:        42120 b          151 skpd (  0.4%)    0.027 s ( 0.001 ms/b)
<sf|dd>:        54054 b         1479 skpd (  2.7%)    0.031 s ( 0.001 ms/b)
<sf|df>:        29484 b           66 skpd (  0.2%)    0.030 s ( 0.001 ms/b)
<sf|ff>:         4914 b            0 skpd (  0.0%)    0.012 s ( 0.002 ms/b)
<pp|pp>:       106030 b         2433 skpd (  2.3%)    0.016 s ( 0.000 ms/b)
<pp|pd>:       288880 b         9562 skpd (  3.3%)    0.074 s ( 0.000 ms/b)
<pp|pf>:        82800 b         1271 skpd (  1.5%)    0.031 s ( 0.000 ms/b)
<pp|dd>:       106260 b         3956 skpd (  3.7%)    0.042 s ( 0.000 ms/b)
<pp|df>:        57960 b          958 skpd (  1.7%)    0.035 s ( 0.001 ms/b)
<pp|ff>:         9660 b          122 skpd (  1.3%)    0.013 s ( 0.001 ms/b)
<pd|pd>:       197506 b         8899 skpd (  4.5%)    0.089 s ( 0.000 ms/b)
<pd|pf>:       113040 b         3045 skpd (  2.7%)    0.076 s ( 0.001 ms/b)
<pd|dd>:       145068 b         7478 skpd (  5.2%)    0.106 s ( 0.001 ms/b)
<pd|df>:        79128 b         2115 skpd (  2.7%)    0.089 s ( 0.001 ms/b)
<pd|ff>:        13188 b          296 skpd (  2.2%)    0.034 s ( 0.003 ms/b)
<pf|pf>:        16290 b          107 skpd (  0.7%)    0.020 s ( 0.001 ms/b)
<pf|dd>:        41580 b         1288 skpd (  3.1%)    0.049 s ( 0.001 ms/b)
<pf|df>:        22680 b          145 skpd (  0.6%)    0.044 s ( 0.002 ms/b)
<pf|ff>:         3780 b            8 skpd (  0.2%)    0.017 s ( 0.005 ms/b)
<dd|dd>:        26796 b         1519 skpd (  5.7%)    0.036 s ( 0.001 ms/b)
<dd|df>:        29106 b          907 skpd (  3.1%)    0.062 s ( 0.002 ms/b)
<dd|ff>:         4851 b          127 skpd (  2.6%)    0.024 s ( 0.005 ms/b)
<df|df>:         8001 b           30 skpd (  0.4%)    0.033 s ( 0.004 ms/b)
<df|ff>:         2646 b            0 skpd (  0.0%)    0.023 s ( 0.009 ms/b)
<ff|ff>:          231 b            0 skpd (  0.0%)    0.004 s ( 0.019 ms/b)
Recanonicalizing the internal orbitals
Recanonicalizing the virtual orbitals
Time needed for Fock operator              ...            2.323 sec
Reference energy                           ...   -154.128513514

------------------------------
PARTIAL COULOMB TRANSFORMATION
------------------------------

Transformation type                        ... one-operator
Dimension of the basis                     ...  276
Number of internal MOs                     ...  273 (3-275)
Pair cutoff                                ... 0.000e+00 Eh
Number of AO pairs included in the trafo   ... 38226
Total Number of distinct AO pairs          ... 38226
Memory devoted for trafo                   ...  500.0 MB 
Max. Number of MO pairs treated together   ... 1714      
Max. Number of MOs treated per batch       ...    6      
Number Format for Storage                  ... Double (8 Byte)
AO-integral source                         ... DIRECT
Integral package used                      ... LIBINT

Starting integral evaluation:
<ss|**>:      3589800 b        0 skpd     0.634 s (  0.000 ms/b)
<sp|**>:      5373120 b        0 skpd     2.355 s (  0.000 ms/b)
<sd|**>:      3784344 b        0 skpd     2.891 s (  0.001 ms/b)
<sf|**>:      1083888 b        0 skpd     1.259 s (  0.001 ms/b)
<pp|**>:      2130720 b        0 skpd     2.583 s (  0.001 ms/b)
<pd|**>:      2908896 b        0 skpd     6.121 s (  0.002 ms/b)
<pf|**>:       833760 b        0 skpd     2.544 s (  0.003 ms/b)
<dd|**>:      1069992 b        0 skpd     3.885 s (  0.004 ms/b)
<df|**>:       583632 b        0 skpd    18.908 s (  0.032 ms/b)
<ff|**>:        97272 b        0 skpd     3.519 s (  0.036 ms/b)
Closing buffer AOJ ( 0.66 GB; CompressionRatio= 1.00)
Collecting buffer AOJ 
    ... done with AO integral generation
Number of MO pairs included in the trafo   ... 37401
    ... Now sorting integrals
IBATCH = 1 of  2
IBATCH = 2 of  2
Closing buffer JAO ( 0.67 GB; CompressionRatio= 1.00)
Collecting buffer JAO 
TOTAL TIME for half transformation         ...   137.039 sec
AO-integral generation                     ...     6.071 sec
Half transformation                        ...    38.678 sec
J-integral sorting                         ...    46.742 sec

-------------------------- SECOND HALF TRANSFORMATION -------------------------
Formation of (pq|rs)                       ... ok (   233.447 sec)
Integral sorting                           ... ok (  1018.076 sec)

------------------
CLOSED SHELL GUESS
------------------

Initial guess performed in     0.063 sec
E(0)                                       ...   -154.128513514
E(MP2)                                     ...     -0.609383841
Initial E(tot)                             ...   -154.737897355
<T|T>                                      ...      0.167021534
Number of pairs included                   ... 55
Total number of pairs                      ... 55

------------------------------------------------
                  RHF COUPLED CLUSTER ITERATIONS
------------------------------------------------

Number of amplitudes to be optimized       ... 3806925

Iter       E(tot)           E(Corr)          Delta-E          Residual     Time
  0   -154.737897355     -0.609383841      0.000000000      0.015320055  434.05
                           *** Turning on DIIS ***
  1   -154.748731534     -0.620218021     -0.010834180      0.001776097  341.77
  2   -154.763017521     -0.634504007     -0.014285986      0.001291678  412.08
  3   -154.766031076     -0.637517563     -0.003013555      0.000355471  415.13
  4   -154.766615827     -0.638102314     -0.000584751      0.000273405  327.56
  5   -154.766677397     -0.638163884     -0.000061570      0.000105285  441.96
  6   -154.766690090     -0.638176576     -0.000012693      0.000054330  247.71
  7   -154.766692379     -0.638178865     -0.000002289      0.000021696   15.48
  8   -154.766692172     -0.638178658      0.000000207      0.000007315   12.83
               --- The Coupled-Cluster iterations have converged ---

----------------------
COUPLED CLUSTER ENERGY
----------------------

E(0)                                       ...   -154.128513514
E(CORR)                                    ...     -0.638178658
E(TOT)                                     ...   -154.766692172
Singles Norm <S|S>**1/2                    ...      0.045485276  
T1 diagnostic                              ...      0.010170817  

------------------
LARGEST AMPLITUDES
------------------
  10-> 56  10-> 56       0.011921
   9-> 50   9-> 50       0.011317
  12-> 28  -1-> -1       0.011205
   9-> 54   9-> 54       0.011204
   8-> 60   8-> 60       0.010565
   8-> 61   8-> 60       0.009165
   8-> 60   8-> 61       0.009165
   8-> 61   8-> 61       0.009127
  12-> 62  12-> 62       0.009125
  10-> 56   7-> 47       0.008556
   9-> 54   9-> 32       0.008488
   9-> 32   9-> 54       0.008488
  10-> 67  10-> 67       0.008440
   9-> 50   9-> 28       0.008159
   9-> 28   9-> 50       0.008159
   9-> 54   6-> 50       0.008104


        !!!!!!!!!!!!!!!!!!!!!!!!!!!!!!!!!!!!!!!!!!!!!!!!!!!!!!!!!!!!!!!!!!!!!!!!!! 
        !  Warning: Densities are linearized densities !                         !
        !!!!!!!!!!!!!!!!!!!!!!!!!!!!!!!!!!!!!!!!!!!!!!!!!!!!!!!!!!!!!!!!!!!!!!!!!! 

Trace of internal density part =     -0.390179876
Trace of external density part =      0.390179876
NORM  =      1.197158848 sqrt=     1.094147544
W(HF) =      0.835311038
------------------------------------------------------------------------------
                           ORCA POPULATION ANALYSIS
------------------------------------------------------------------------------
Input electron density              ... dimethyl_ether_CCSD_aug-cc-pVTZ_SPE.mdcip
BaseName (.gbw .S,...)              ... dimethyl_ether_CCSD_aug-cc-pVTZ_SPE

                    ********************************
                    * MULLIKEN POPULATION ANALYSIS *
                    ********************************

-----------------------
MULLIKEN ATOMIC CHARGES
-----------------------
   0 C :   -0.834162
   1 O :   -0.407804
   2 C :   -0.834168
   3 H :    0.337948
   4 H :    0.362161
   5 H :    0.337954
   6 H :    0.337955
   7 H :    0.362160
   8 H :    0.337956
Sum of atomic charges:   -0.0000000

--------------------------------
MULLIKEN REDUCED ORBITAL CHARGES
--------------------------------
  0 C s       :     3.307969  s :     3.307969
      pz      :     1.269945  p :     3.242369
      px      :     0.735698
      py      :     1.236726
      dz2     :     0.041419  d :     0.257390
      dxz     :     0.066629
      dyz     :     0.043265
      dx2y2   :     0.030677
      dxy     :     0.075399
      f0      :     0.003615  f :     0.026435
      f+1     :     0.002599
      f-1     :     0.003090
      f+2     :     0.005129
      f-2     :     0.002180
      f+3     :     0.002618
      f-3     :     0.007203
  1 O s       :     3.815513  s :     3.815513
      pz      :     1.490434  p :     4.503688
      px      :     1.276390
      py      :     1.736864
      dz2     :     0.016975  d :     0.079452
      dxz     :     0.017308
      dyz     :     0.013686
      dx2y2   :     0.017317
      dxy     :     0.014166
      f0      :     0.001271  f :     0.009151
      f+1     :     0.001351
      f-1     :     0.001572
      f+2     :     0.001327
      f-2     :     0.001020
      f+3     :     0.001403
      f-3     :     0.001207
  2 C s       :     3.307972  s :     3.307972
      pz      :     0.895026  p :     3.242372
      px      :     1.235584
      py      :     1.111762
      dz2     :     0.086781  d :     0.257389
      dxz     :     0.026615
      dyz     :     0.042281
      dx2y2   :     0.085162
      dxy     :     0.016549
      f0      :     0.003344  f :     0.026435
      f+1     :     0.006936
      f-1     :     0.003994
      f+2     :     0.003067
      f-2     :     0.003904
      f+3     :     0.004015
      f-3     :     0.001175
  3 H s       :     0.616687  s :     0.616687
      pz      :     0.012882  p :     0.042746
      px      :     0.010522
      py      :     0.019342
      dz2     :    -0.000685  d :     0.002620
      dxz     :     0.000896
      dyz     :     0.002906
      dx2y2   :     0.000043
      dxy     :    -0.000542
  4 H s       :     0.582510  s :     0.582510
      pz      :     0.027307  p :     0.054792
      px      :     0.008116
      py      :     0.019369
      dz2     :     0.001087  d :     0.000537
      dxz     :    -0.000282
      dyz     :     0.000096
      dx2y2   :    -0.000460
      dxy     :     0.000096
  5 H s       :     0.616680  s :     0.616680
      pz      :     0.018300  p :     0.042747
      px      :     0.010523
      py      :     0.013923
      dz2     :     0.001666  d :     0.002619
      dxz     :    -0.000499
      dyz     :     0.000509
      dx2y2   :     0.000090
      dxy     :     0.000853
  6 H s       :     0.616678  s :     0.616678
      pz      :     0.014074  p :     0.042747
      px      :     0.013835
      py      :     0.014839
      dz2     :    -0.001173  d :     0.002620
      dxz     :     0.001185
      dyz     :     0.000691
      dx2y2   :     0.001649
      dxy     :     0.000269
  7 H s       :     0.582509  s :     0.582509
      pz      :     0.010878  p :     0.054794
      px      :     0.030019
      py      :     0.013897
      dz2     :     0.000342  d :     0.000538
      dxz     :    -0.000250
      dyz     :     0.000041
      dx2y2   :    -0.000974
      dxy     :     0.001379
  8 H s       :     0.616676  s :     0.616676
      pz      :     0.012144  p :     0.042749
      px      :     0.013831
      py      :     0.016774
      dz2     :     0.000562  d :     0.002619
      dxz     :     0.000043
      dyz     :     0.000475
      dx2y2   :     0.000128
      dxy     :     0.001410


                     *******************************
                     * LOEWDIN POPULATION ANALYSIS *
                     *******************************

----------------------
LOEWDIN ATOMIC CHARGES
----------------------
   0 C :    0.276658
   1 O :    0.550667
   2 C :    0.276673
   3 H :   -0.182366
   4 H :   -0.187268
   5 H :   -0.182364
   6 H :   -0.182367
   7 H :   -0.187268
   8 H :   -0.182365

-------------------------------
LOEWDIN REDUCED ORBITAL CHARGES
-------------------------------
  0 C s       :     2.466846  s :     2.466846
      pz      :     0.796630  p :     2.208431
      px      :     0.621125
      py      :     0.790677
      dz2     :     0.108792  d :     0.721355
      dxz     :     0.179291
      dyz     :     0.078184
      dx2y2   :     0.159556
      dxy     :     0.195532
      f0      :     0.036959  f :     0.326710
      f+1     :     0.042278
      f-1     :     0.021431
      f+2     :     0.059530
      f-2     :     0.014486
      f+3     :     0.061032
      f-3     :     0.090994
  1 O s       :     3.013556  s :     3.013556
      pz      :     1.285252  p :     3.837980
      px      :     1.174651
      py      :     1.378077
      dz2     :     0.095588  d :     0.469721
      dxz     :     0.125425
      dyz     :     0.058138
      dx2y2   :     0.096887
      dxy     :     0.093683
      f0      :     0.028449  f :     0.128076
      f+1     :     0.013458
      f-1     :     0.011167
      f+2     :     0.028826
      f-2     :     0.009572
      f+3     :     0.011255
      f-3     :     0.025348
  2 C s       :     2.466848  s :     2.466848
      pz      :     0.678737  p :     2.208430
      px      :     0.778309
      py      :     0.751384
      dz2     :     0.228350  d :     0.721344
      dxz     :     0.098058
      dyz     :     0.156891
      dx2y2   :     0.174961
      dxy     :     0.063085
      f0      :     0.064366  f :     0.326706
      f+1     :     0.050395
      f-1     :     0.067746
      f+2     :     0.055085
      f-2     :     0.046560
      f+3     :     0.026136
      f-3     :     0.016418
  3 H s       :     0.646545  s :     0.646545
      pz      :     0.089783  p :     0.312740
      px      :     0.070349
      py      :     0.152608
      dz2     :     0.016395  d :     0.223081
      dxz     :     0.011072
      dyz     :     0.082761
      dx2y2   :     0.066791
      dxy     :     0.046061
  4 H s       :     0.654480  s :     0.654480
      pz      :     0.134730  p :     0.307800
      px      :     0.067900
      py      :     0.105170
      dz2     :     0.076364  d :     0.224988
      dxz     :     0.040422
      dyz     :     0.049646
      dx2y2   :     0.038962
      dxy     :     0.019594
  5 H s       :     0.646548  s :     0.646548
      pz      :     0.139518  p :     0.312738
      px      :     0.070346
      py      :     0.102874
      dz2     :     0.076083  d :     0.223078
      dxz     :     0.038319
      dyz     :     0.048975
      dx2y2   :     0.040888
      dxy     :     0.018814
  6 H s       :     0.646546  s :     0.646546
      pz      :     0.118168  p :     0.312740
      px      :     0.097693
      py      :     0.096879
      dz2     :     0.059880  d :     0.223081
      dxz     :     0.052152
      dyz     :     0.051959
      dx2y2   :     0.043967
      dxy     :     0.015123
  7 H s       :     0.654480  s :     0.654480
      pz      :     0.072832  p :     0.307800
      px      :     0.150424
      py      :     0.084543
      dz2     :     0.022268  d :     0.224988
      dxz     :     0.073833
      dyz     :     0.006976
      dx2y2   :     0.043665
      dxy     :     0.078247
  8 H s       :     0.646549  s :     0.646549
      pz      :     0.070124  p :     0.312737
      px      :     0.097685
      py      :     0.144928
      dz2     :     0.021557  d :     0.223079
      dxz     :     0.006014
      dyz     :     0.072503
      dx2y2   :     0.061740
      dxy     :     0.061266


                      *****************************
                      * MAYER POPULATION ANALYSIS *
                      *****************************

  NA   - Mulliken gross atomic population
  ZA   - Total nuclear charge
  QA   - Mulliken gross atomic charge
  VA   - Mayer's total valence
  BVA  - Mayer's bonded valence
  FA   - Mayer's free valence

  ATOM       NA         ZA         QA         VA         BVA        FA
  0 C      6.8342     6.0000    -0.8342     3.7780     3.4311     0.3470
  1 O      8.4078     8.0000    -0.4078     2.2779     1.8471     0.4308
  2 C      6.8342     6.0000    -0.8342     3.7780     3.4311     0.3470
  3 H      0.6621     1.0000     0.3379     0.9624     0.8955     0.0669
  4 H      0.6378     1.0000     0.3622     1.0035     0.9384     0.0651
  5 H      0.6620     1.0000     0.3380     0.9624     0.8955     0.0669
  6 H      0.6620     1.0000     0.3380     0.9624     0.8955     0.0669
  7 H      0.6378     1.0000     0.3622     1.0035     0.9384     0.0651
  8 H      0.6620     1.0000     0.3380     0.9624     0.8956     0.0669

  Mayer bond orders larger than 0.100000
B(  0-C ,  1-O ) :   0.9161 B(  0-C ,  3-H ) :   0.8039 B(  0-C ,  4-H ) :   0.8449 
B(  0-C ,  5-H ) :   0.8039 B(  1-O ,  2-C ) :   0.9161 B(  2-C ,  6-H ) :   0.8039 
B(  2-C ,  7-H ) :   0.8449 B(  2-C ,  8-H ) :   0.8039 



------------------------------------------------------------------------------- 
                                     TIMINGS                                   
------------------------------------------------------------------------------- 


Total execution time                   ...     4045.667 sec

Fock Matrix Formation                  ...        2.323 sec (  0.1%)
Initial Guess                          ...        0.063 sec (  0.0%)
DIIS Solver                            ...      140.186 sec (  3.5%)
State Vector Update                    ...        0.338 sec (  0.0%)
Sigma-vector construction              ...     2508.042 sec ( 62.0%)
  <0|H|D>                              ...        0.033 sec (  0.0% of sigma)
  <D|H|D>(0-ext)                       ...        0.548 sec (  0.0% of sigma)
  <D|H|D>(2-ext Fock)                  ...        0.249 sec (  0.0% of sigma)
  <D|H|D>(2-ext)                       ...        7.362 sec (  0.3% of sigma)
  <D|H|D>(4-ext)                       ...     2324.762 sec ( 92.7% of sigma)
  <D|H|D>(4-ext-corr)                  ...       93.828 sec (  3.7% of sigma)
  <S|H|0>                              ...        0.014 sec (  0.0% of sigma)
  <S|H|S>                              ...        0.040 sec (  0.0% of sigma)
  <S|H|D>(1-ext)                       ...        0.145 sec (  0.0% of sigma)
  <D|H|S>(1-ext)                       ...        0.176 sec (  0.0% of sigma)
  <S|H|D>(3-ext)                       ...        6.822 sec (  0.3% of sigma)
  Fock-dressing                        ...       12.169 sec (  0.5% of sigma)
  (ik|jl)-dressing                     ...        0.430 sec (  0.0% of sigma)
  (ij|ab),(ia|jb)-dressing             ...       59.665 sec (  2.4% of sigma)
  Pair energies                        ...        0.043 sec (  0.0% of sigma)
One-particle density matrix            ...        0.040 sec (  0.0%)


-------------------------   --------------------
FINAL SINGLE POINT ENERGY      -154.766692171729
-------------------------   --------------------


                            ***************************************
                            *     ORCA property calculations      *
                            ***************************************

                                    ---------------------
                                    Active property flags
                                    ---------------------
   (+) Dipole Moment


------------------------------------------------------------------------------
                       ORCA ELECTRIC PROPERTIES CALCULATION
------------------------------------------------------------------------------

Dipole Moment Calculation                       ... on
Quadrupole Moment Calculation                   ... off
Polarizability Calculation                      ... off
GBWName                                         ... dimethyl_ether_CCSD_aug-cc-pVTZ_SPE.gbw
Electron density file                           ... dimethyl_ether_CCSD_aug-cc-pVTZ_SPE.scfp
The origin for moment calculation is the CENTER OF MASS  = ( 0.622203,  0.439977  0.762038)

-------------
DIPOLE MOMENT
-------------
                                X             Y             Z
Electronic contribution:     -1.13685      -0.80383      -1.39230
Nuclear contribution   :      1.47463       1.04267       1.80602
                        -----------------------------------------
Total Dipole Moment    :      0.33777       0.23884       0.41372
                        -----------------------------------------
Magnitude (a.u.)       :      0.58506
Magnitude (Debye)      :      1.48711



--------------------
Rotational spectrum 
--------------------
 
Rotational constants in cm-1:     1.286004     0.339768     0.299167 
Rotational constants in MHz : 38553.444095 10185.980426  8968.803123 

 Dipole components along the rotational axes: 
x,y,z [a.u.] :    -0.000017     0.585062    -0.000003 
x,y,z [Debye]:    -0.000042     1.487110    -0.000009 

 

                           *** MDCI DENSITY ***

------------------------------------------------------------------------------
                       ORCA ELECTRIC PROPERTIES CALCULATION
------------------------------------------------------------------------------

Dipole Moment Calculation                       ... on
Quadrupole Moment Calculation                   ... off
Polarizability Calculation                      ... off
GBWName                                         ... dimethyl_ether_CCSD_aug-cc-pVTZ_SPE.gbw
Electron density file                           ... dimethyl_ether_CCSD_aug-cc-pVTZ_SPE.mdcip
The origin for moment calculation is the CENTER OF MASS  = ( 0.622203,  0.439977  0.762038)

-------------
DIPOLE MOMENT
-------------
                                X             Y             Z
Electronic contribution:     -1.17479      -0.83065      -1.43877
Nuclear contribution   :      1.47463       1.04267       1.80602
                        -----------------------------------------
Total Dipole Moment    :      0.29983       0.21201       0.36725
                        -----------------------------------------
Magnitude (a.u.)       :      0.51935
Magnitude (Debye)      :      1.32007



--------------------
Rotational spectrum 
--------------------
 
Rotational constants in cm-1:     1.286004     0.339768     0.299167 
Rotational constants in MHz : 38553.444095 10185.980426  8968.803123 

 Dipole components along the rotational axes: 
x,y,z [a.u.] :    -0.000014     0.519346    -0.000003 
x,y,z [Debye]:    -0.000035     1.320071    -0.000007 

 

Timings for individual modules:

Sum of individual times         ...     4098.453 sec (=  68.308 min)
GTO integral calculation        ...        0.783 sec (=   0.013 min)   0.0 %
SCF iterations                  ...       18.363 sec (=   0.306 min)   0.4 %
MDCI module                     ...     4079.307 sec (=  67.988 min)  99.5 %
                             ****ORCA TERMINATED NORMALLY****
TOTAL RUN TIME: 0 days 1 hours 8 minutes 26 seconds 362 msec
