
                                 *****************
                                 * O   R   C   A *
                                 *****************

           --- An Ab Initio, DFT and Semiempirical electronic structure package ---

                  #######################################################
                  #                        -***-                        #
                  #          Department of theory and spectroscopy      #
                  #               Directorship: Frank Neese             #
                  #        Max Planck Institute fuer Kohlenforschung    #
                  #                Kaiser Wilhelm Platz 1               #
                  #                 D-45470 Muelheim/Ruhr               #
                  #                      Germany                        #
                  #                                                     #
                  #                  All rights reserved                #
                  #                        -***-                        #
                  #######################################################


                         Program Version 4.2.1 -  RELEASE  -


 With contributions from (in alphabetic order):
   Daniel Aravena         : Magnetic Suceptibility
   Michael Atanasov       : Ab Initio Ligand Field Theory (pilot matlab implementation)
   Alexander A. Auer      : GIAO ZORA, VPT2
   Ute Becker             : Parallelization
   Giovanni Bistoni       : ED, misc. LED, open-shell LED, HFLD
   Martin Brehm           : Molecular dynamics
   Dmytro Bykov           : SCF Hessian
   Vijay G. Chilkuri      : MRCI spin determinant printing, contributions to CSF-ICE
   Dipayan Datta          : RHF DLPNO-CCSD density
   Achintya Kumar Dutta   : EOM-CC, STEOM-CC
   Dmitry Ganyushin       : Spin-Orbit,Spin-Spin,Magnetic field MRCI
   Miquel Garcia          : C-PCM Hessian, Gaussian charge scheme
   Yang Guo               : DLPNO-NEVPT2, CIM, IAO-localization
   Andreas Hansen         : Spin unrestricted coupled pair/coupled cluster methods
   Benjamin Helmich-Paris : CASSCF linear response (MC-RPA)
   Lee Huntington         : MR-EOM, pCC
   Robert Izsak           : Overlap fitted RIJCOSX, COSX-SCS-MP3, EOM
   Christian Kollmar      : KDIIS, OOCD, Brueckner-CCSD(T), CCSD density
   Simone Kossmann        : Meta GGA functionals, TD-DFT gradient, OOMP2, MP2 Hessian
   Martin Krupicka        : AUTO-CI
   Lucas Lang             : DCDCAS
   Dagmar Lenk            : GEPOL surface, SMD
   Dimitrios Liakos       : Extrapolation schemes; Compound Job, initial MDCI parallelization
   Dimitrios Manganas     : Further ROCIS development; embedding schemes
   Dimitrios Pantazis     : SARC Basis sets
   Taras Petrenko         : DFT Hessian,TD-DFT gradient, ASA, ECA, R-Raman, ABS, FL, XAS/XES, NRVS
   Peter Pinski           : DLPNO-MP2, DLPNO-MP2 Gradient
   Christoph Reimann      : Effective Core Potentials
   Marius Retegan         : Local ZFS, SOC
   Christoph Riplinger    : Optimizer, TS searches, QM/MM, DLPNO-CCSD(T), (RO)-DLPNO pert. Triples
   Tobias Risthaus        : Range-separated hybrids, TD-DFT gradient, RPA, STAB
   Michael Roemelt        : Original ROCIS implementation
   Masaaki Saitow         : Open-shell DLPNO-CCSD energy and density
   Barbara Sandhoefer     : DKH picture change effects
   Avijit Sen             : IP-ROCIS
   Kantharuban Sivalingam : CASSCF convergence, NEVPT2, FIC-MRCI
   Bernardo de Souza      : ESD, SOC TD-DFT
   Georgi Stoychev        : AutoAux, RI-MP2 NMR
   Willem Van den Heuvel  : Paramagnetic NMR
   Boris Wezisla          : Elementary symmetry handling
   Frank Wennmohs         : Technical directorship


 We gratefully acknowledge several colleagues who have allowed us to
 interface, adapt or use parts of their codes:
   Stefan Grimme, W. Hujo, H. Kruse,             : VdW corrections, initial TS optimization,
                  C. Bannwarth                     DFT functionals, gCP, sTDA/sTD-DF
   Ed Valeev, F. Pavosevic, A. Kumar             : LibInt (2-el integral package), F12 methods
   Garnet Chan, S. Sharma, J. Yang, R. Olivares  : DMRG
   Ulf Ekstrom                                   : XCFun DFT Library
   Mihaly Kallay                                 : mrcc  (arbitrary order and MRCC methods)
   Andreas Klamt, Michael Diedenhofen            : otool_cosmo (COSMO solvation model)
   Jiri Pittner, Ondrej Demel                    : Mk-CCSD
   Frank Weinhold                                : gennbo (NPA and NBO analysis)
   Christopher J. Cramer and Donald G. Truhlar   : smd solvation model
   Lars Goerigk                                  : TD-DFT with DH, B97 family of functionals
   V. Asgeirsson, H. Jonsson                     : NEB implementation
   FAccTs GmbH                                   : IRC, NEB, NEB-TS, Multilevel, MM, QM/MM, CI optimization
   S Lehtola, MJT Oliveira, MAL Marques          : LibXC Library


 Your calculation uses the libint2 library for the computation of 2-el integrals
 For citations please refer to: http://libint.valeyev.net

 Your ORCA version has been built with support for libXC version: 4.2.3
 For citations please refer to: https://tddft.org/programs/libxc/

 This ORCA versions uses:
   CBLAS   interface :  Fast vector & matrix operations
   LAPACKE interface :  Fast linear algebra routines
   SCALAPACK package :  Parallel linear algebra routines




***************************************
The coordinates will be read from file: dimethyl_ether_MP2_aug-cc-pVTZ_OPT.xyz
***************************************


----- Orbital basis set information -----
Your calculation utilizes the basis: aug-cc-pVTZ 
    H, B-Ne : Obtained from the ccRepo (grant-hill.group.shef.ac.uk/ccrepo) Feb. 2017
              R. A. Kendall, T. H. Dunning, Jr., R. J. Harrison, J. Chem. Phys. 96, 6796 (1992)
         He : Obtained from the ccRepo (grant-hill.group.shef.ac.uk/ccrepo) Feb. 2017
              D. E. Woon, T. H. Dunning, Jr., J. Chem. Phys. 100, 2975 (1994)
  Li-Be, Na : Obtained from the ccRepo (grant-hill.group.shef.ac.uk/ccrepo) Feb. 2017
              B. P. Prascher, D. E. Woon, K. A. Peterson, T. H. Dunning, Jr., A. K. Wilson, Theor. Chem. Acc. 128, 69 (2011)
         Mg : Obtained from the Peterson Research Group Website (tyr0.chem.wsu.edu/~kipeters) Feb. 2017
              B. P. Prascher, D. E. Woon, K. A. Peterson, T. H. Dunning, Jr., A. K. Wilson, Theor. Chem. Acc. 128, 69 (2011)
      Al-Ar : Obtained from the ccRepo (grant-hill.group.shef.ac.uk/ccrepo) Feb. 2017
              D. E. Woon, T. H. Dunning, Jr., J. Chem. Phys. 98, 1358 (1993)
      Sc-Zn : Obtained from the ccRepo (grant-hill.group.shef.ac.uk/ccrepo) Feb. 2017
              N. B. Balabanov, K. A. Peterson, J. Chem. Phys. 123, 064107 (2005)
              N. B. Balabanov, K. A. Peterson, J. Chem. Phys. 125, 074110 (2006)
      Ga-Kr : Obtained from the ccRepo (grant-hill.group.shef.ac.uk/ccrepo) Feb. 2017
              A. K. Wilson, D. E. Woon, K. A. Peterson, T. H. Dunning, Jr., J. Chem. Phys. 110, 7667 (1999)
     Ag, Au : Obtained from the Peterson Research Group Website (tyr0.chem.wsu.edu/~kipeters) Feb. 2017
              K. A. Peterson, C. Puzzarini, Theor. Chem. Acc. 114, 283 (2005)

----- AuxC basis set information -----
Your calculation utilizes the auxiliary basis: aug-cc-pVTZ/C 
  H-He, B-F, Al-Ar, Ga-Kr : Obtained from the EMSL Basis Set Exchange (bse.pnl.gov) Feb. 2017
                            F. Weigend, A. Kohn, C. Hattig, J. Chem. Phys. 116, 3175 (2002)
                   Be, Mg : Obtained from the TURBOMOLE 7.0 basis set library
                            C. Haettig, Phys. Chem. Chem. Phys. 7, 59 (2005)
                       Ne : Obtained from the EMSL Basis Set Exchange (bse.pnl.gov) Feb. 2017
                            C. Haettig, Phys. Chem. Chem. Phys. 7, 59 (2005)
                            F. Weigend, A. Kohn, C. Hattig, J. Chem. Phys. 116, 3175 (2002)
                    Sc-Zn : Obtained from the EMSL Basis Set Exchange (bse.pnl.gov) Feb. 2017
                            J. G. Hill, J. A. Platts, J. Chem. Phys. 128, 044104 (2008)

================================================================================
                                        WARNINGS
                       Please study these warnings very carefully!
================================================================================


WARNING: MDCI localization with Augmented Hessian Foster-Boys
  ===> : Switching off randomization!

WARNING: Post HF methods need fully converged wavefunctions
  ===> : Setting SCFConvForced true
         You can overwrite this default with %scf ConvForced false 


INFO   : the flag for use of LIBINT has been found!

================================================================================
                                       INPUT FILE
================================================================================
NAME = dimethyl_ether_DLPNO-CCSD_aug-cc-pVTZ_SPE.inp
|  1> # dimethyl_ether DLPNO-CCSD/aug-cc-pVTZ SPE
|  2> 
|  3> ! DLPNO-CCSD aug-cc-pVTZ aug-cc-pVTZ/C TightSCF PAL8
|  4> %maxcore 1000
|  5> 
|  6> * xyzfile 0 1 dimethyl_ether_MP2_aug-cc-pVTZ_OPT.xyz
|  7> 
|  8> 
|  9>                          ****END OF INPUT****
================================================================================

                       ****************************
                       * Single Point Calculation *
                       ****************************

---------------------------------
CARTESIAN COORDINATES (ANGSTROEM)
---------------------------------
  C      1.423161    0.000448    0.000810
  O      0.011345    0.008039    0.013887
  C     -0.473514    0.671060    1.162274
  H      1.822902    1.019917   -0.011599
  H      1.738092   -0.519354   -0.899693
  H      1.822879   -0.520186    0.877408
  H     -0.136300    0.172673    2.077236
  H     -1.558785    0.646143    1.119301
  H     -0.136439    1.712681    1.188037

----------------------------
CARTESIAN COORDINATES (A.U.)
----------------------------
  NO LB      ZA    FRAG     MASS         X           Y           Z
   0 C     6.0000    0    12.011    2.689384    0.000847    0.001530
   1 O     8.0000    0    15.999    0.021438    0.015191    0.026242
   2 C     6.0000    0    12.011   -0.894812    1.268119    2.196380
   3 H     1.0000    0     1.008    3.444785    1.927364   -0.021919
   4 H     1.0000    0     1.008    3.284518   -0.981437   -1.700174
   5 H     1.0000    0     1.008    3.444742   -0.983009    1.658062
   6 H     1.0000    0     1.008   -0.257571    0.326304    3.925407
   7 H     1.0000    0     1.008   -2.945677    1.221032    2.115172
   8 H     1.0000    0     1.008   -0.257833    3.236498    2.245064

--------------------------------
INTERNAL COORDINATES (ANGSTROEM)
--------------------------------
 C      0   0   0     0.000000000000     0.00000000     0.00000000
 O      1   0   0     1.411896843841     0.00000000     0.00000000
 C      2   1   0     1.411906455624   110.69817955     0.00000000
 H      1   2   3     1.095109234314   111.10654674   299.50978250
 H      1   2   3     1.086407741853   107.46455946   180.00485090
 H      1   2   3     1.095107236573   111.10788398    60.49833594
 H      3   2   1     1.095105991167   111.10659516   299.51196623
 H      3   2   1     1.086407409849   107.46387312   180.00662088
 H      3   2   1     1.095106170337   111.10580927    60.50110265

---------------------------
INTERNAL COORDINATES (A.U.)
---------------------------
 C      0   0   0     0.000000000000     0.00000000     0.00000000
 O      1   0   0     2.668098364207     0.00000000     0.00000000
 C      2   1   0     2.668116527846   110.69817955     0.00000000
 H      1   2   3     2.069456539582   111.10654674   299.50978250
 H      1   2   3     2.053013101874   107.46455946   180.00485090
 H      1   2   3     2.069452764398   111.10788398    60.49833594
 H      3   2   1     2.069450410922   111.10659516   299.51196623
 H      3   2   1     2.053012474477   107.46387312   180.00662088
 H      3   2   1     2.069450749504   111.10580927    60.50110265

---------------------
BASIS SET INFORMATION
---------------------
There are 3 groups of distinct atoms

 Group   1 Type C   : 19s6p3d2f contracted to 5s4p3d2f pattern {88111/3111/111/11}
 Group   2 Type O   : 19s6p3d2f contracted to 5s4p3d2f pattern {88111/3111/111/11}
 Group   3 Type H   : 6s3p2d contracted to 4s3p2d pattern {3111/111/11}

Atom   0C    basis set group =>   1
Atom   1O    basis set group =>   2
Atom   2C    basis set group =>   1
Atom   3H    basis set group =>   3
Atom   4H    basis set group =>   3
Atom   5H    basis set group =>   3
Atom   6H    basis set group =>   3
Atom   7H    basis set group =>   3
Atom   8H    basis set group =>   3
---------------------------------
AUXILIARY/C BASIS SET INFORMATION
---------------------------------
There are 3 groups of distinct atoms

 Group   1 Type C   : 9s7p6d4f2g contracted to 9s7p6d4f2g pattern {111111111/1111111/111111/1111/11}
 Group   2 Type O   : 9s7p6d4f2g contracted to 9s7p6d4f2g pattern {111111111/1111111/111111/1111/11}
 Group   3 Type H   : 5s4p3d2f contracted to 5s4p3d2f pattern {11111/1111/111/11}

Atom   0C    basis set group =>   1
Atom   1O    basis set group =>   2
Atom   2C    basis set group =>   1
Atom   3H    basis set group =>   3
Atom   4H    basis set group =>   3
Atom   5H    basis set group =>   3
Atom   6H    basis set group =>   3
Atom   7H    basis set group =>   3
Atom   8H    basis set group =>   3


           ************************************************************
           *        Program running with 8 parallel MPI-processes     *
           *              working on a common directory               *
           ************************************************************
------------------------------------------------------------------------------
                           ORCA GTO INTEGRAL CALCULATION
------------------------------------------------------------------------------

                         BASIS SET STATISTICS AND STARTUP INFO

 # of primitive gaussian shells          ...  156
 # of primitive gaussian functions       ...  348
 # of contracted shells                  ...   96
 # of contracted basis functions         ...  276
 Highest angular momentum                ...    3
 Maximum contraction depth               ...    8
 Integral package used                   ... LIBINT
 Integral threshhold            Thresh   ...  2.500e-11
 Primitive cut-off              TCut     ...  2.500e-12


------------------------------ INTEGRAL EVALUATION ----------------------------


 * One electron integrals 
 Pre-screening matrix                    ... done
 Shell pair data                         ... done (   0.001 sec)



           ************************************************************
           *        Program running with 8 parallel MPI-processes     *
           *              working on a common directory               *
           ************************************************************
-------------------------------------------------------------------------------
                                 ORCA SCF
-------------------------------------------------------------------------------

------------
SCF SETTINGS
------------
Hamiltonian:
 Ab initio Hamiltonian  Method          .... Hartree-Fock(GTOs)


General Settings:
 Integral files         IntName         .... dimethyl_ether_DLPNO-CCSD_aug-cc-pVTZ_SPE
 Hartree-Fock type      HFTyp           .... RHF
 Total Charge           Charge          ....    0
 Multiplicity           Mult            ....    1
 Number of Electrons    NEL             ....   26
 Basis Dimension        Dim             ....  276
 Nuclear Repulsion      ENuc            ....     84.1040764406 Eh

Convergence Acceleration:
 DIIS                   CNVDIIS         .... on
   Start iteration      DIISMaxIt       ....    12
   Startup error        DIISStart       ....  0.200000
   # of expansion vecs  DIISMaxEq       ....     5
   Bias factor          DIISBfac        ....   1.050
   Max. coefficient     DIISMaxC        ....  10.000
 Newton-Raphson         CNVNR           .... off
 SOSCF                  CNVSOSCF        .... on
   Start iteration      SOSCFMaxIt      ....   150
   Startup grad/error   SOSCFStart      ....  0.003300
 Level Shifting         CNVShift        .... on
   Level shift para.    LevelShift      ....    0.2500
   Turn off err/grad.   ShiftErr        ....    0.0010
 Zerner damping         CNVZerner       .... off
 Static damping         CNVDamp         .... on
   Fraction old density DampFac         ....    0.7000
   Max. Damping (<1)    DampMax         ....    0.9800
   Min. Damping (>=0)   DampMin         ....    0.0000
   Turn off err/grad.   DampErr         ....    0.1000
 Fernandez-Rico         CNVRico         .... off

SCF Procedure:
 Maximum # iterations   MaxIter         ....   125
 SCF integral mode      SCFMode         .... Direct
   Integral package                     .... LIBINT
 Reset frequency        DirectResetFreq ....    20
 Integral Threshold     Thresh          ....  2.500e-11 Eh
 Primitive CutOff       TCut            ....  2.500e-12 Eh

Convergence Tolerance:
 Convergence Check Mode ConvCheckMode   .... Total+1el-Energy
 Convergence forced     ConvForced      .... 1
 Energy Change          TolE            ....  1.000e-08 Eh
 1-El. energy change                    ....  1.000e-05 Eh
 Orbital Gradient       TolG            ....  1.000e-05
 Orbital Rotation angle TolX            ....  1.000e-05
 DIIS Error             TolErr          ....  5.000e-07


Diagonalization of the overlap matrix:
Smallest eigenvalue                        ... 2.628e-05
Time for diagonalization                   ...    0.017 sec
Threshold for overlap eigenvalues          ... 1.000e-08
Number of eigenvalues below threshold      ... 0
Time for construction of square roots      ...    0.015 sec
Total time needed                          ...    0.033 sec

-------------------
DFT GRID GENERATION
-------------------

General Integration Accuracy     IntAcc      ...  4.340
Radial Grid Type                 RadialGrid  ... Gauss-Chebyshev
Angular Grid (max. acc.)         AngularGrid ... Lebedev-110
Angular grid pruning method      GridPruning ... 3 (G Style)
Weight generation scheme         WeightScheme... Becke
Basis function cutoff            BFCut       ...    1.0000e-11
Integration weight cutoff        WCut        ...    1.0000e-14
Grids for H and He will be reduced by one unit

# of grid points (after initial pruning)     ...   9792 (   0.0 sec)
# of grid points (after weights+screening)   ...   9363 (   0.0 sec)
nearest neighbour list constructed           ...    0.0 sec
Grid point re-assignment to atoms done       ...    0.0 sec
Grid point division into batches done        ...    0.0 sec
Reduced shell lists constructed in    0.0 sec

Total number of grid points                  ...     9363
Total number of batches                      ...      151
Average number of points per batch           ...       62
Average number of grid points per atom       ...     1040
Average number of shells per batch           ...    85.90 (89.48%)
Average number of basis functions per batch  ...   246.80 (89.42%)
Average number of large shells per batch     ...    77.65 (90.40%)
Average number of large basis fcns per batch ...   223.45 (90.54%)
Maximum spatial batch extension              ...  11.80, 20.75, 14.55 au
Average spatial batch extension              ...   0.34,  0.44,  0.37 au

Time for grid setup =    0.019 sec

------------------------------
INITIAL GUESS: MODEL POTENTIAL
------------------------------
Loading Hartree-Fock densities                     ... done
Calculating cut-offs                               ... done
Setting up the integral package                    ... done
Initializing the effective Hamiltonian             ... done
Starting the Coulomb interaction                   ... done (   0.0 sec)
Reading the grid                                   ... done
Mapping shells                                     ... done
Starting the XC term evaluation                    ... done (   0.0 sec)
Transforming the Hamiltonian                       ... done (   0.0 sec)
Diagonalizing the Hamiltonian                      ... done (   0.0 sec)
Back transforming the eigenvectors                 ... done (   0.0 sec)
Now organizing SCF variables                       ... done
                      ------------------
                      INITIAL GUESS DONE (   0.2 sec)
                      ------------------
--------------
SCF ITERATIONS
--------------
ITER       Energy         Delta-E        Max-DP      RMS-DP      [F,P]     Damp
               ***  Starting incremental Fock matrix formation  ***
  0   -153.9799665856   0.000000000000 0.02767243  0.00058092  0.2071547 0.7000
  1   -154.0307843862  -0.050817800633 0.02033247  0.00044057  0.1457511 0.7000
                               ***Turning on DIIS***
  2   -154.0622401169  -0.031455730672 0.01480886  0.00031050  0.1095179 0.7000
  3   -154.4542042894  -0.391964172570 0.03725178  0.00079612  0.0812588 0.0000
  4   -154.1016040205   0.352600268917 0.00453591  0.00011765  0.0056091 0.0000
                      *** Initiating the SOSCF procedure ***
                           *** Shutting down DIIS ***
                      *** Re-Reading the Fockian *** 
                      *** Removing any level shift *** 
ITER      Energy       Delta-E        Grad      Rot      Max-DP    RMS-DP
  5   -154.12705764  -0.0254536239  0.001122  0.001122  0.001739  0.000042
               *** Restarting incremental Fock matrix formation ***
  6   -154.12850764  -0.0014499934  0.000349  0.000307  0.000637  0.000013
  7   -154.12851262  -0.0000049857  0.000129  0.000209  0.000265  0.000007
  8   -154.12851345  -0.0000008313  0.000046  0.000046  0.000049  0.000001
  9   -154.12851351  -0.0000000565  0.000007  0.000007  0.000016  0.000000
 10   -154.12851351  -0.0000000015  0.000003  0.000003  0.000004  0.000000
                  ***Gradient check signals convergence***
              ***Rediagonalizing the Fockian in SOSCF/NRSCF***

               *****************************************************
               *                     SUCCESS                       *
               *           SCF CONVERGED AFTER  11 CYCLES          *
               *****************************************************


----------------
TOTAL SCF ENERGY
----------------

Total Energy       :         -154.12851351 Eh           -4194.05007 eV

Components:
Nuclear Repulsion  :           84.10407644 Eh            2288.58827 eV
Electronic Energy  :         -238.23258995 Eh           -6482.63834 eV
One Electron Energy:         -375.97775662 Eh          -10230.87489 eV
Two Electron Energy:          137.74516667 Eh            3748.23654 eV

Virial components:
Potential Energy   :         -308.03561747 Eh           -8382.07529 eV
Kinetic Energy     :          153.90710396 Eh            4188.02521 eV
Virial Ratio       :            2.00143859


---------------
SCF CONVERGENCE
---------------

  Last Energy change         ...   -6.1391e-10  Tolerance :   1.0000e-08
  Last MAX-Density change    ...    1.0760e-06  Tolerance :   1.0000e-07
  Last RMS-Density change    ...    2.7114e-08  Tolerance :   5.0000e-09
  Last Orbital Gradient      ...    5.0474e-07  Tolerance :   1.0000e-05
  Last Orbital Rotation      ...    7.0360e-07  Tolerance :   1.0000e-05

             **** THE GBW FILE WAS UPDATED (dimethyl_ether_DLPNO-CCSD_aug-cc-pVTZ_SPE.gbw) ****
             **** DENSITY FILE WAS UPDATED (dimethyl_ether_DLPNO-CCSD_aug-cc-pVTZ_SPE.scfp) ****
             **** ENERGY FILE WAS UPDATED (dimethyl_ether_DLPNO-CCSD_aug-cc-pVTZ_SPE.en.tmp) ****
             **** THE GBW FILE WAS UPDATED (dimethyl_ether_DLPNO-CCSD_aug-cc-pVTZ_SPE.gbw) ****
             **** DENSITY FILE WAS UPDATED (dimethyl_ether_DLPNO-CCSD_aug-cc-pVTZ_SPE.scfp) ****
----------------
ORBITAL ENERGIES
----------------

  NO   OCC          E(Eh)            E(eV) 
   0   2.0000     -20.556991      -559.3842 
   1   2.0000     -11.268345      -306.6273 
   2   2.0000     -11.268326      -306.6267 
   3   2.0000      -1.372731       -37.3539 
   4   2.0000      -0.967390       -26.3240 
   5   2.0000      -0.876116       -23.8403 
   6   2.0000      -0.659957       -17.9583 
   7   2.0000      -0.650805       -17.7093 
   8   2.0000      -0.638068       -17.3627 
   9   2.0000      -0.549911       -14.9638 
  10   2.0000      -0.525686       -14.3046 
  11   2.0000      -0.483972       -13.1695 
  12   2.0000      -0.425409       -11.5760 
  13   0.0000       0.030378         0.8266 
  14   0.0000       0.040474         1.1014 
  15   0.0000       0.045494         1.2380 
  16   0.0000       0.047398         1.2898 
  17   0.0000       0.062833         1.7098 
  18   0.0000       0.064766         1.7624 
  19   0.0000       0.089233         2.4281 
  20   0.0000       0.118942         3.2366 
  21   0.0000       0.122865         3.3433 
  22   0.0000       0.129385         3.5208 
  23   0.0000       0.140271         3.8170 
  24   0.0000       0.143466         3.9039 
  25   0.0000       0.149202         4.0600 
  26   0.0000       0.174454         4.7471 
  27   0.0000       0.174729         4.7546 
  28   0.0000       0.200988         5.4692 
  29   0.0000       0.226727         6.1696 
  30   0.0000       0.228850         6.2273 
  31   0.0000       0.230717         6.2781 
  32   0.0000       0.244977         6.6662 
  33   0.0000       0.248502         6.7621 
  34   0.0000       0.300526         8.1777 
  35   0.0000       0.304373         8.2824 
  36   0.0000       0.314110         8.5474 
  37   0.0000       0.317702         8.6451 
  38   0.0000       0.318923         8.6783 
  39   0.0000       0.326730         8.8908 
  40   0.0000       0.340661         9.2698 
  41   0.0000       0.344692         9.3795 
  42   0.0000       0.362840         9.8734 
  43   0.0000       0.368349        10.0233 
  44   0.0000       0.369755        10.0615 
  45   0.0000       0.374562        10.1923 
  46   0.0000       0.382645        10.4123 
  47   0.0000       0.408684        11.1209 
  48   0.0000       0.408692        11.1211 
  49   0.0000       0.427588        11.6353 
  50   0.0000       0.435402        11.8479 
  51   0.0000       0.438754        11.9391 
  52   0.0000       0.448337        12.1999 
  53   0.0000       0.457983        12.4623 
  54   0.0000       0.459762        12.5108 
  55   0.0000       0.476546        12.9675 
  56   0.0000       0.479605        13.0507 
  57   0.0000       0.483268        13.1504 
  58   0.0000       0.490814        13.3557 
  59   0.0000       0.493887        13.4394 
  60   0.0000       0.503248        13.6941 
  61   0.0000       0.537481        14.6256 
  62   0.0000       0.540664        14.7122 
  63   0.0000       0.571598        15.5540 
  64   0.0000       0.574226        15.6255 
  65   0.0000       0.609474        16.5846 
  66   0.0000       0.616364        16.7721 
  67   0.0000       0.679414        18.4878 
  68   0.0000       0.691704        18.8222 
  69   0.0000       0.701125        19.0786 
  70   0.0000       0.757737        20.6191 
  71   0.0000       0.782638        21.2967 
  72   0.0000       0.788203        21.4481 
  73   0.0000       0.799377        21.7521 
  74   0.0000       0.804976        21.9045 
  75   0.0000       0.808453        21.9991 
  76   0.0000       0.836260        22.7558 
  77   0.0000       0.839862        22.8538 
  78   0.0000       0.846265        23.0280 
  79   0.0000       0.851929        23.1822 
  80   0.0000       0.887263        24.1437 
  81   0.0000       0.890250        24.2249 
  82   0.0000       0.913074        24.8460 
  83   0.0000       0.924253        25.1502 
  84   0.0000       0.929085        25.2817 
  85   0.0000       0.938701        25.5433 
  86   0.0000       0.960190        26.1281 
  87   0.0000       0.961531        26.1646 
  88   0.0000       0.979013        26.6403 
  89   0.0000       0.995030        27.0761 
  90   0.0000       0.996580        27.1183 
  91   0.0000       1.017197        27.6793 
  92   0.0000       1.028115        27.9764 
  93   0.0000       1.054233        28.6871 
  94   0.0000       1.082975        29.4692 
  95   0.0000       1.089905        29.6578 
  96   0.0000       1.091114        29.6907 
  97   0.0000       1.093648        29.7597 
  98   0.0000       1.103802        30.0360 
  99   0.0000       1.124469        30.5983 
 100   0.0000       1.139551        31.0088 
 101   0.0000       1.158394        31.5215 
 102   0.0000       1.177854        32.0510 
 103   0.0000       1.184775        32.2394 
 104   0.0000       1.187570        32.3154 
 105   0.0000       1.201667        32.6990 
 106   0.0000       1.213771        33.0284 
 107   0.0000       1.226765        33.3820 
 108   0.0000       1.237991        33.6874 
 109   0.0000       1.240929        33.7674 
 110   0.0000       1.241196        33.7747 
 111   0.0000       1.295855        35.2620 
 112   0.0000       1.307754        35.5858 
 113   0.0000       1.322572        35.9890 
 114   0.0000       1.354400        36.8551 
 115   0.0000       1.408690        38.3324 
 116   0.0000       1.411926        38.4205 
 117   0.0000       1.440031        39.1852 
 118   0.0000       1.455520        39.6067 
 119   0.0000       1.501699        40.8633 
 120   0.0000       1.511603        41.1328 
 121   0.0000       1.516130        41.2560 
 122   0.0000       1.571402        42.7600 
 123   0.0000       1.583635        43.0929 
 124   0.0000       1.601581        43.5812 
 125   0.0000       1.607496        43.7422 
 126   0.0000       1.625742        44.2387 
 127   0.0000       1.631346        44.3912 
 128   0.0000       1.659479        45.1567 
 129   0.0000       1.681775        45.7634 
 130   0.0000       1.696184        46.1555 
 131   0.0000       1.702937        46.3393 
 132   0.0000       1.705958        46.4215 
 133   0.0000       1.727012        46.9944 
 134   0.0000       1.728798        47.0430 
 135   0.0000       1.734880        47.2085 
 136   0.0000       1.781614        48.4802 
 137   0.0000       1.801004        49.0078 
 138   0.0000       1.836088        49.9625 
 139   0.0000       1.868739        50.8510 
 140   0.0000       1.894877        51.5622 
 141   0.0000       1.900829        51.7242 
 142   0.0000       1.916131        52.1406 
 143   0.0000       1.950569        53.0777 
 144   0.0000       1.995314        54.2953 
 145   0.0000       2.005819        54.5811 
 146   0.0000       2.008098        54.6431 
 147   0.0000       2.029094        55.2144 
 148   0.0000       2.109729        57.4086 
 149   0.0000       2.113524        57.5119 
 150   0.0000       2.159591        58.7655 
 151   0.0000       2.170011        59.0490 
 152   0.0000       2.186116        59.4872 
 153   0.0000       2.186467        59.4968 
 154   0.0000       2.203524        59.9609 
 155   0.0000       2.256942        61.4145 
 156   0.0000       2.304427        62.7066 
 157   0.0000       2.305340        62.7315 
 158   0.0000       2.406491        65.4839 
 159   0.0000       2.409629        65.5693 
 160   0.0000       2.585101        70.3442 
 161   0.0000       2.596854        70.6640 
 162   0.0000       2.686835        73.1125 
 163   0.0000       2.713446        73.8366 
 164   0.0000       2.742773        74.6347 
 165   0.0000       2.745299        74.7034 
 166   0.0000       2.793689        76.0201 
 167   0.0000       2.875233        78.2391 
 168   0.0000       2.905565        79.0644 
 169   0.0000       3.004706        81.7622 
 170   0.0000       3.046747        82.9062 
 171   0.0000       3.064177        83.3805 
 172   0.0000       3.137341        85.3714 
 173   0.0000       3.152459        85.7828 
 174   0.0000       3.182317        86.5952 
 175   0.0000       3.283460        89.3475 
 176   0.0000       3.356369        91.3314 
 177   0.0000       3.380091        91.9769 
 178   0.0000       3.409173        92.7683 
 179   0.0000       3.435117        93.4743 
 180   0.0000       3.575037        97.2817 
 181   0.0000       3.575331        97.2897 
 182   0.0000       3.597403        97.8903 
 183   0.0000       3.619980        98.5047 
 184   0.0000       3.623183        98.5918 
 185   0.0000       3.700075       100.6842 
 186   0.0000       3.705648       100.8358 
 187   0.0000       3.721171       101.2582 
 188   0.0000       3.740146       101.7746 
 189   0.0000       3.771148       102.6182 
 190   0.0000       3.782431       102.9252 
 191   0.0000       3.823240       104.0357 
 192   0.0000       3.853414       104.8567 
 193   0.0000       3.886885       105.7675 
 194   0.0000       3.901888       106.1758 
 195   0.0000       3.959761       107.7506 
 196   0.0000       3.977395       108.2304 
 197   0.0000       3.995745       108.7298 
 198   0.0000       4.004881       108.9783 
 199   0.0000       4.031687       109.7078 
 200   0.0000       4.048499       110.1653 
 201   0.0000       4.068137       110.6996 
 202   0.0000       4.131694       112.4291 
 203   0.0000       4.169766       113.4651 
 204   0.0000       4.172403       113.5369 
 205   0.0000       4.172464       113.5385 
 206   0.0000       4.199283       114.2683 
 207   0.0000       4.249569       115.6366 
 208   0.0000       4.252027       115.7035 
 209   0.0000       4.271466       116.2325 
 210   0.0000       4.326024       117.7171 
 211   0.0000       4.335812       117.9834 
 212   0.0000       4.352519       118.4381 
 213   0.0000       4.449987       121.0903 
 214   0.0000       4.547047       123.7314 
 215   0.0000       4.591357       124.9372 
 216   0.0000       4.595904       125.0609 
 217   0.0000       4.612470       125.5117 
 218   0.0000       4.630995       126.0158 
 219   0.0000       4.639723       126.2533 
 220   0.0000       4.719397       128.4213 
 221   0.0000       4.730396       128.7206 
 222   0.0000       4.760809       129.5482 
 223   0.0000       4.790868       130.3661 
 224   0.0000       4.806327       130.7868 
 225   0.0000       4.877560       132.7252 
 226   0.0000       4.887245       132.9887 
 227   0.0000       4.933419       134.2452 
 228   0.0000       4.934463       134.2736 
 229   0.0000       5.015011       136.4654 
 230   0.0000       5.023524       136.6970 
 231   0.0000       5.030117       136.8764 
 232   0.0000       5.054498       137.5399 
 233   0.0000       5.164652       140.5373 
 234   0.0000       5.191560       141.2695 
 235   0.0000       5.256167       143.0276 
 236   0.0000       5.261075       143.1611 
 237   0.0000       5.363425       145.9462 
 238   0.0000       5.365506       146.0028 
 239   0.0000       5.381113       146.4275 
 240   0.0000       5.490126       149.3939 
 241   0.0000       5.521153       150.2382 
 242   0.0000       5.597527       152.3165 
 243   0.0000       5.609756       152.6492 
 244   0.0000       5.614937       152.7902 
 245   0.0000       5.678293       154.5142 
 246   0.0000       5.698792       155.0720 
 247   0.0000       5.701356       155.1418 
 248   0.0000       5.722044       155.7047 
 249   0.0000       5.983091       162.8082 
 250   0.0000       6.081086       165.4748 
 251   0.0000       6.083478       165.5399 
 252   0.0000       6.091792       165.7661 
 253   0.0000       6.105837       166.1483 
 254   0.0000       6.148941       167.3212 
 255   0.0000       6.274528       170.7386 
 256   0.0000       6.598853       179.5639 
 257   0.0000       6.608266       179.8201 
 258   0.0000       6.645552       180.8347 
 259   0.0000       6.695555       182.1953 
 260   0.0000       6.776891       184.4086 
 261   0.0000       6.970375       189.6735 
 262   0.0000       7.003020       190.5619 
 263   0.0000       7.169167       195.0830 
 264   0.0000       7.211054       196.2228 
 265   0.0000       7.385082       200.9583 
 266   0.0000       7.428073       202.1281 
 267   0.0000       7.632370       207.6873 
 268   0.0000       7.677893       208.9261 
 269   0.0000       7.715588       209.9518 
 270   0.0000       7.900307       214.9783 
 271   0.0000       8.293287       225.6718 
 272   0.0000       8.369397       227.7429 
 273   0.0000      15.012366       408.5072 
 274   0.0000      17.712018       481.9685 
 275   0.0000      17.889165       486.7889 

                    ********************************
                    * MULLIKEN POPULATION ANALYSIS *
                    ********************************

-----------------------
MULLIKEN ATOMIC CHARGES
-----------------------
   0 C :   -0.739202
   1 O :   -0.520740
   2 C :   -0.739210
   3 H :    0.323139
   4 H :    0.353285
   5 H :    0.323147
   6 H :    0.323148
   7 H :    0.353284
   8 H :    0.323149
Sum of atomic charges:   -0.0000000

--------------------------------
MULLIKEN REDUCED ORBITAL CHARGES
--------------------------------
  0 C s       :     3.277965  s :     3.277965
      pz      :     1.260220  p :     3.191821
      px      :     0.706645
      py      :     1.224956
      dz2     :     0.042194  d :     0.244379
      dxz     :     0.060642
      dyz     :     0.042113
      dx2y2   :     0.033394
      dxy     :     0.066036
      f0      :     0.003106  f :     0.025037
      f+1     :     0.002338
      f-1     :     0.003429
      f+2     :     0.004906
      f-2     :     0.001332
      f+3     :     0.002978
      f-3     :     0.006947
  1 O s       :     3.840464  s :     3.840464
      pz      :     1.532990  p :     4.631018
      px      :     1.312243
      py      :     1.785785
      dz2     :     0.010169  d :     0.045163
      dxz     :     0.010274
      dyz     :     0.007133
      dx2y2   :     0.011265
      dxy     :     0.006321
      f0      :     0.000559  f :     0.004095
      f+1     :     0.000562
      f-1     :     0.000902
      f+2     :     0.000620
      f-2     :     0.000264
      f+3     :     0.000701
      f-3     :     0.000486
  2 C s       :     3.277969  s :     3.277969
      pz      :     0.870809  p :     3.191825
      px      :     1.225852
      py      :     1.095163
      dz2     :     0.083635  d :     0.244379
      dxz     :     0.023983
      dyz     :     0.039097
      dx2y2   :     0.086273
      dxy     :     0.011392
      f0      :     0.002709  f :     0.025037
      f+1     :     0.006955
      f-1     :     0.004325
      f+2     :     0.002652
      f-2     :     0.003966
      f+3     :     0.003911
      f-3     :     0.000519
  3 H s       :     0.632222  s :     0.632222
      pz      :     0.009342  p :     0.042068
      px      :     0.010024
      py      :     0.022702
      dz2     :    -0.000826  d :     0.002571
      dxz     :     0.000733
      dyz     :     0.003022
      dx2y2   :     0.000308
      dxy     :    -0.000668
  4 H s       :     0.590434  s :     0.590434
      pz      :     0.029636  p :     0.055711
      px      :     0.007726
      py      :     0.018348
      dz2     :     0.001301  d :     0.000570
      dxz     :    -0.000419
      dyz     :     0.000080
      dx2y2   :    -0.000344
      dxy     :    -0.000048
  5 H s       :     0.632213  s :     0.632213
      pz      :     0.020094  p :     0.042070
      px      :     0.010024
      py      :     0.011951
      dz2     :     0.001860  d :     0.002570
      dxz     :    -0.000658
      dyz     :     0.000467
      dx2y2   :     0.000178
      dxy     :     0.000723
  6 H s       :     0.632211  s :     0.632211
      pz      :     0.016711  p :     0.042070
      px      :     0.011737
      py      :     0.013622
      dz2     :    -0.001234  d :     0.002571
      dxz     :     0.001228
      dyz     :     0.000750
      dx2y2   :     0.001626
      dxy     :     0.000201
  7 H s       :     0.590433  s :     0.590433
      pz      :     0.008921  p :     0.055713
      px      :     0.035343
      py      :     0.011448
      dz2     :     0.000294  d :     0.000570
      dxz     :    -0.000117
      dyz     :    -0.000020
      dx2y2   :    -0.001118
      dxy     :     0.001532
  8 H s       :     0.632208  s :     0.632208
      pz      :     0.010162  p :     0.042072
      px      :     0.011733
      py      :     0.020177
      dz2     :     0.000493  d :     0.002570
      dxz     :    -0.000065
      dyz     :     0.000688
      dx2y2   :    -0.000041
      dxy     :     0.001496


                     *******************************
                     * LOEWDIN POPULATION ANALYSIS *
                     *******************************

----------------------
LOEWDIN ATOMIC CHARGES
----------------------
   0 C :    0.298352
   1 O :    0.518417
   2 C :    0.298367
   3 H :   -0.183582
   4 H :   -0.190405
   5 H :   -0.183581
   6 H :   -0.183583
   7 H :   -0.190404
   8 H :   -0.183582

-------------------------------
LOEWDIN REDUCED ORBITAL CHARGES
-------------------------------
  0 C s       :     2.464028  s :     2.464028
      pz      :     0.794031  p :     2.195181
      px      :     0.613897
      py      :     0.787253
      dz2     :     0.107562  d :     0.713038
      dxz     :     0.177228
      dyz     :     0.076591
      dx2y2   :     0.161083
      dxy     :     0.190575
      f0      :     0.037532  f :     0.329400
      f+1     :     0.041534
      f-1     :     0.020461
      f+2     :     0.061428
      f-2     :     0.013378
      f+3     :     0.060582
      f-3     :     0.094486
  1 O s       :     3.012687  s :     3.012687
      pz      :     1.310824  p :     3.911917
      px      :     1.191266
      py      :     1.409827
      dz2     :     0.089253  d :     0.437278
      dxz     :     0.119371
      dyz     :     0.051373
      dx2y2   :     0.090345
      dxy     :     0.086935
      f0      :     0.027564  f :     0.119701
      f+1     :     0.011811
      f-1     :     0.009817
      f+2     :     0.027872
      f-2     :     0.008436
      f+3     :     0.009780
      f-3     :     0.024422
  2 C s       :     2.464030  s :     2.464030
      pz      :     0.672987  p :     2.195179
      px      :     0.775281
      py      :     0.746911
      dz2     :     0.225380  d :     0.713027
      dxz     :     0.097234
      dyz     :     0.154983
      dx2y2   :     0.175037
      dxy     :     0.060393
      f0      :     0.066781  f :     0.329396
      f+1     :     0.050440
      f-1     :     0.067842
      f+2     :     0.056540
      f-2     :     0.046872
      f+3     :     0.025134
      f-3     :     0.015788
  3 H s       :     0.659407  s :     0.659407
      pz      :     0.087008  p :     0.301261
      px      :     0.065235
      py      :     0.149018
      dz2     :     0.016048  d :     0.222915
      dxz     :     0.010114
      dyz     :     0.084568
      dx2y2   :     0.067060
      dxy     :     0.045125
  4 H s       :     0.667353  s :     0.667353
      pz      :     0.131899  p :     0.298435
      px      :     0.064178
      py      :     0.102358
      dz2     :     0.077217  d :     0.224616
      dxz     :     0.039687
      dyz     :     0.049450
      dx2y2   :     0.039716
      dxy     :     0.018546
  5 H s       :     0.659410  s :     0.659410
      pz      :     0.135973  p :     0.301259
      px      :     0.065232
      py      :     0.100054
      dz2     :     0.077064  d :     0.222912
      dxz     :     0.037482
      dyz     :     0.048874
      dx2y2   :     0.041735
      dxy     :     0.017757
  6 H s       :     0.659408  s :     0.659408
      pz      :     0.112496  p :     0.301261
      px      :     0.094827
      py      :     0.093937
      dz2     :     0.059893  d :     0.222914
      dxz     :     0.051978
      dyz     :     0.051404
      dx2y2   :     0.045034
      dxy     :     0.014605
  7 H s       :     0.667354  s :     0.667354
      pz      :     0.069597  p :     0.298434
      px      :     0.147241
      py      :     0.081597
      dz2     :     0.021553  d :     0.224616
      dxz     :     0.074580
      dyz     :     0.006636
      dx2y2   :     0.042749
      dxy     :     0.079099
  8 H s       :     0.659411  s :     0.659411
      pz      :     0.066103  p :     0.301258
      px      :     0.094820
      py      :     0.140335
      dz2     :     0.020793  d :     0.222913
      dxz     :     0.005425
      dyz     :     0.073603
      dx2y2   :     0.061929
      dxy     :     0.061163


                      *****************************
                      * MAYER POPULATION ANALYSIS *
                      *****************************

  NA   - Mulliken gross atomic population
  ZA   - Total nuclear charge
  QA   - Mulliken gross atomic charge
  VA   - Mayer's total valence
  BVA  - Mayer's bonded valence
  FA   - Mayer's free valence

  ATOM       NA         ZA         QA         VA         BVA        FA
  0 C      6.7392     6.0000    -0.7392     3.6332     3.6332    -0.0000
  1 O      8.5207     8.0000    -0.5207     1.8501     1.8501    -0.0000
  2 C      6.7392     6.0000    -0.7392     3.6332     3.6332     0.0000
  3 H      0.6769     1.0000     0.3231     0.9790     0.9790    -0.0000
  4 H      0.6467     1.0000     0.3533     1.0191     1.0191    -0.0000
  5 H      0.6769     1.0000     0.3231     0.9790     0.9790    -0.0000
  6 H      0.6769     1.0000     0.3231     0.9790     0.9790    -0.0000
  7 H      0.6467     1.0000     0.3533     1.0191     1.0191     0.0000
  8 H      0.6769     1.0000     0.3231     0.9790     0.9790    -0.0000

  Mayer bond orders larger than 0.100000
B(  0-C ,  1-O ) :   0.9059 B(  0-C ,  3-H ) :   0.8844 B(  0-C ,  4-H ) :   0.9149 
B(  0-C ,  5-H ) :   0.8844 B(  1-O ,  2-C ) :   0.9059 B(  2-C ,  6-H ) :   0.8844 
B(  2-C ,  7-H ) :   0.9149 B(  2-C ,  8-H ) :   0.8844 

-------
TIMINGS
-------

Total SCF time: 0 days 0 hours 0 min 25 sec 

Total time                  ....      25.525 sec
Sum of individual times     ....      25.289 sec  ( 99.1%)

Fock matrix formation       ....      24.750 sec  ( 97.0%)
Diagonalization             ....       0.143 sec  (  0.6%)
Density matrix formation    ....       0.008 sec  (  0.0%)
Population analysis         ....       0.018 sec  (  0.1%)
Initial guess               ....       0.132 sec  (  0.5%)
Orbital Transformation      ....       0.000 sec  (  0.0%)
Orbital Orthonormalization  ....       0.000 sec  (  0.0%)
DIIS solution               ....       0.058 sec  (  0.2%)
SOSCF solution              ....       0.162 sec  (  0.6%)


           ************************************************************
           *        Program running with 8 parallel MPI-processes     *
           *              working on a common directory               *
           ************************************************************


------------------------------------------------------------------------------- 
                              ORCA-MATRIX DRIVEN CI                            
------------------------------------------------------------------------------- 


Wavefunction type
-----------------
Correlation treatment                      ...      CCSD     
Single excitations                         ... ON
Orbital optimization                       ... OFF
Calculation of Z vector                    ... OFF
Calculation of Brueckner orbitals          ... OFF
Perturbative triple excitations            ... OFF
Calculation of F12 correction              ... OFF
Frozen core treatment                      ... chemical core (6 el)
Reference Wavefunction                     ... RHF
  Internal Orbitals:     3 ...   12 ( 10 MO's/ 20 electrons)
  Virtual  Orbitals:    13 ...  275 (263 MO's              )
Number of AO's                             ...    276
Number of electrons                        ...     26
Number of correlated electrons             ...     20

Algorithmic settings
--------------------
Integral transformation                    ... All integrals via the RI transformation
K(C) Formation                             ... RI-DLPNO
   PNO-Integral Storage                    ... ON DISK
   PNO occupation number cut-off           ... 3.330e-07
   Singles PNO occupation number cut-off   ... 9.990e-09
   PNO Mulliken prescreening cut-off       ... 1.000e-03
   Domain cut-off (Mulliken population)    ... 1.000e-03
   PNO Normalization                       ...    1
Maximum number of iterations               ...        50
Convergence tolerance (max. residuum)      ... 1.000e-05
Level shift for amplitude update           ... 2.000e-01
Maximum number of DIIS vectors             ...         7
DIIS turned on at iteration                ...         0
Damping before turning on DIIS             ...     0.500
Damping after turning on DIIS              ...     0.000
Pair specific amplitude update             ... OFF
Natural orbital iterations                 ... OFF
Perturbative natural orbital generation    ... OFF
Printlevel                                 ... 2

Singles Fock matrix elements calculated using PNOs.

Memory handling:
----------------
Maximum memory for working arrays          ...   1000 MB
Data storage in matrix containers          ... UNCOMPRESSED
Data type for integral storage             ... DOUBLE
In-Core Storage of quantities:
   Amplitudes+Sigma Vector      ... NO
   J+K operators                ... NO
   DIIS vectors                 ... NO
   3-external integrals         ... NO
   4-external integrals         ... NO

Localization treatment:
-----------------------
Localization option                        ...    6
Localization threshhold                    ... -1.0e+00
Using relative localization threshhold     ... 1.0e-08
Neglect threshold for strong pairs         ... 1.000e-04 Eh
Prescreening threshold for very weak pairs ... 1.000e-06 Eh

Initializing the integral package          ... done
Localizing the valence orbitals
------------------------------------------------------------------------------
                           ORCA ORBITAL LOCALIZATION
------------------------------------------------------------------------------

Input orbitals are from                  ... dimethyl_ether_DLPNO-CCSD_aug-cc-pVTZ_SPE.gbw
Output orbitals are to                   ... dimethyl_ether_DLPNO-CCSD_aug-cc-pVTZ_SPE.loc
Max. number of iterations                ... 128
Localizations seeded randomly            ... off
Convergence tolerance                    ... 1.000e-06
Using relative localization threshhold   ... 1.000e-08
Treshold for strong local MOs            ... 9.500e-01
Treshold for bond MOs                    ... 8.500e-01
Operator                                 ... 0
Orbital range for localization           ... 3 to 12
Localization criterion                   ... FOSTER-BOYS (AUGMENTED HESSIAN)
Doing the dipole integrals     ... o.k.
Initial value of the localization sum :    56.023699
ITERATION   0 : L=   73.3252836073 DL=  1.73e+01 (AVERGE_DL)=    0.6200642300 
ITERATION   1 : L=   73.9713396210 DL=  6.46e-01 (AVERGE_DL)=    0.1198198661 
ITERATION   2 : L=   73.9746722943 DL=  3.33e-03 (AVERGE_DL)=    0.0086057775 
ITERATION   3 : L=   73.9749160404 DL=  2.44e-04 (AVERGE_DL)=    0.0023273548 
ITERATION   4 : L=   73.9749410805 DL=  2.50e-05 (AVERGE_DL)=    0.0007459527 
ITERATION   5 : L=   73.9749438547 DL=  2.77e-06 (AVERGE_DL)=    0.0002482905 
ITERATION   6 : L=   73.9749441254 DL=  2.71e-07 (AVERGE_DL)=    0.0000775717 
LOCALIZATION SUM CONVERGED

------------------------------------------------------
AUGMENTED HESSIAN OPTIMIZATION OF FOSTER-BOYS ORBITALS
------------------------------------------------------

Spin operator:           0
Orbital window:          3 to 12
Number of iterations:    128
Gradient tolerance:      1.000e-06
Number of pairs:         45
Davidson threshold:      2000
Diagonalization method:  LAPACK
Iter:    0   L: 73.9749441254   Grad. norm: 3.693581e-04
   *** Likely close to a maximum now. ***
       Augmented Hessian eigenvalues:  5.55e-08 -1.39e+00 -3.69e+00 -5.41e+00 ... 
Iter:    1   L: 73.9749441532   Grad. norm: 2.749190e-08
LOCALIZATION HAS CONVERGED.

Eigenvalues of the Hessian:
  0 -1.394e+00
  1 -3.695e+00
  2 -5.412e+00
  3 -5.641e+00
  4 -7.691e+00
  5 -1.074e+01
  6 -1.756e+01
  7 -1.756e+01
  8 -2.117e+01
  9 -2.117e+01
    ...


------------------------------------------------------------------------------- 
                    LOCALIZED MOLECULAR ORBITAL COMPOSITIONS                   
------------------------------------------------------------------------------- 

The Mulliken populations for each LMO on each atom are computed
The LMO`s will be ordered according to atom index and type
  (A) Strongly localized MO`s have populations of >=0.950 on one atom
  (B) Two center bond orbitals have populations of >=0.850 on two atoms
  (C) Other MO`s are considered to be `delocalized`

FOUND  -   2 strongly local MO`s
       -   8 two center bond MO`s
       -   0 significantly delocalized MO`s

Rather strongly localized orbitals:
MO   4:   1O  -   1.019232
MO   3:   1O  -   1.019232
Bond-like localized orbitals:
MO  12:   8H  -   0.304859  and   2C  -   0.665211
MO  11:   7H  -   0.263488  and   2C  -   0.716091
MO  10:   6H  -   0.304863  and   2C  -   0.665212
MO   9:   5H  -   0.304863  and   0C  -   0.665208
MO   8:   4H  -   0.263490  and   0C  -   0.716091
MO   7:   3H  -   0.304869  and   0C  -   0.665207
MO   6:   2C  -   0.333371  and   1O  -   0.635079
MO   5:   1O  -   0.635077  and   0C  -   0.333376
Localized MO's were stored in: dimethyl_ether_DLPNO-CCSD_aug-cc-pVTZ_SPE.loc

Localizing the core orbitals
------------------------------------------------------------------------------
                           ORCA ORBITAL LOCALIZATION
------------------------------------------------------------------------------

Input orbitals are from                  ... dimethyl_ether_DLPNO-CCSD_aug-cc-pVTZ_SPE.loc
Output orbitals are to                   ... dimethyl_ether_DLPNO-CCSD_aug-cc-pVTZ_SPE.loc
Max. number of iterations                ... 128
Localizations seeded randomly            ... off
Convergence tolerance                    ... 1.000e-06
Using relative localization threshhold   ... 1.000e-08
Treshold for strong local MOs            ... 9.500e-01
Treshold for bond MOs                    ... 8.500e-01
Operator                                 ... 0
Orbital range for localization           ... 0 to 2
Localization criterion                   ... FOSTER-BOYS (AUGMENTED HESSIAN)
Doing the dipole integrals     ... o.k.
Initial value of the localization sum :    14.464996
ITERATION   0 : L=   14.4649997603 DL=  3.93e-06 (AVERGE_DL)=    0.0011439329 
ITERATION   1 : L=   14.4649997603 DL=  0.00e+00 (AVERGE_DL)=    0.0000000000 
LOCALIZATION SUM CONVERGED

------------------------------------------------------
AUGMENTED HESSIAN OPTIMIZATION OF FOSTER-BOYS ORBITALS
------------------------------------------------------

Spin operator:           0
Orbital window:          0 to 2
Number of iterations:    128
Gradient tolerance:      1.000e-06
Number of pairs:         3
Davidson threshold:      2000
Diagonalization method:  LAPACK
Iter:    0   L: 14.4649997603   Grad. norm: 4.954844e-06
   *** Likely close to a maximum now. ***
       Augmented Hessian eigenvalues:  3.19e-13 -2.85e+01 -2.85e+01 -7.71e+01
Iter:    1   L: 14.4649997603   Grad. norm: 1.915867e-19
LOCALIZATION HAS CONVERGED.

Eigenvalues of the Hessian:
  0 -2.847e+01
  1 -2.847e+01
  2 -7.707e+01


------------------------------------------------------------------------------- 
                    LOCALIZED MOLECULAR ORBITAL COMPOSITIONS                   
------------------------------------------------------------------------------- 

The Mulliken populations for each LMO on each atom are computed
The LMO`s will be ordered according to atom index and type
  (A) Strongly localized MO`s have populations of >=0.950 on one atom
  (B) Two center bond orbitals have populations of >=0.850 on two atoms
  (C) Other MO`s are considered to be `delocalized`

FOUND  -   3 strongly local MO`s
       -   0 two center bond MO`s
       -   0 significantly delocalized MO`s

Rather strongly localized orbitals:
MO   2:   2C  -   1.000173
MO   1:   1O  -   0.998689
MO   0:   0C  -   1.000173
Localized MO's were stored in: dimethyl_ether_DLPNO-CCSD_aug-cc-pVTZ_SPE.loc

Warning: reference  - re-canonicalizations have been set to INT 1 VIRT 1
Warning: internal orbitals are localized - no re-canonicalization of internal orbitals
Warning: UsePNO is turned on - no re-canonicalization of internal and virtual orbitals

--------------------------
CLOSED-SHELL FOCK OPERATOR
--------------------------

<ss|ss>:       300700 b         3345 skpd (  1.1%)    0.023 s ( 0.000 ms/b)
<ss|sp>:       899000 b        12463 skpd (  1.4%)    0.098 s ( 0.000 ms/b)
<ss|sd>:       633175 b        13516 skpd (  2.1%)    0.053 s ( 0.000 ms/b)
<ss|sf>:       181350 b         1386 skpd (  0.8%)    0.024 s ( 0.000 ms/b)
<ss|pp>:       356500 b         5977 skpd (  1.7%)    0.023 s ( 0.000 ms/b)
<ss|pd>:       486700 b        12849 skpd (  2.6%)    0.052 s ( 0.000 ms/b)
<ss|pf>:       139500 b         1195 skpd (  0.9%)    0.021 s ( 0.000 ms/b)
<ss|dd>:       179025 b         5450 skpd (  3.0%)    0.025 s ( 0.000 ms/b)
<ss|df>:        97650 b          845 skpd (  0.9%)    0.021 s ( 0.000 ms/b)
<ss|ff>:        16275 b           88 skpd (  0.5%)    0.006 s ( 0.000 ms/b)
<sp|sp>:       673380 b        11331 skpd (  1.7%)    0.049 s ( 0.000 ms/b)
<sp|sd>:       947720 b        23284 skpd (  2.5%)    0.102 s ( 0.000 ms/b)
<sp|sf>:       271440 b         2817 skpd (  1.0%)    0.050 s ( 0.000 ms/b)
<sp|pp>:       533600 b        10592 skpd (  2.0%)    0.060 s ( 0.000 ms/b)
<sp|pd>:       728480 b        21687 skpd (  3.0%)    0.139 s ( 0.000 ms/b)
<sp|pf>:       208800 b         2501 skpd (  1.2%)    0.057 s ( 0.000 ms/b)
<sp|dd>:       267960 b         9166 skpd (  3.4%)    0.076 s ( 0.000 ms/b)
<sp|df>:       146160 b         1669 skpd (  1.1%)    0.062 s ( 0.000 ms/b)
<sp|ff>:        24360 b          185 skpd (  0.8%)    0.017 s ( 0.001 ms/b)
<sd|sd>:       334153 b        10676 skpd (  3.2%)    0.061 s ( 0.000 ms/b)
<sd|sf>:       191178 b         3252 skpd (  1.7%)    0.064 s ( 0.000 ms/b)
<sd|pp>:       375820 b        10304 skpd (  2.7%)    0.078 s ( 0.000 ms/b)
<sd|pd>:       513076 b        19538 skpd (  3.8%)    0.174 s ( 0.000 ms/b)
<sd|pf>:       147060 b         2697 skpd (  1.8%)    0.075 s ( 0.001 ms/b)
<sd|dd>:       188727 b         8140 skpd (  4.3%)    0.100 s ( 0.001 ms/b)
<sd|df>:       102942 b         1825 skpd (  1.8%)    0.087 s ( 0.001 ms/b)
<sd|ff>:        17157 b          244 skpd (  1.4%)    0.026 s ( 0.002 ms/b)
<sf|sf>:        27495 b           64 skpd (  0.2%)    0.021 s ( 0.001 ms/b)
<sf|pp>:       107640 b         1437 skpd (  1.3%)    0.041 s ( 0.000 ms/b)
<sf|pd>:       146952 b         3394 skpd (  2.3%)    0.092 s ( 0.001 ms/b)
<sf|pf>:        42120 b          151 skpd (  0.4%)    0.043 s ( 0.001 ms/b)
<sf|dd>:        54054 b         1479 skpd (  2.7%)    0.053 s ( 0.001 ms/b)
<sf|df>:        29484 b           66 skpd (  0.2%)    0.051 s ( 0.002 ms/b)
<sf|ff>:         4914 b            0 skpd (  0.0%)    0.016 s ( 0.003 ms/b)
<pp|pp>:       106030 b         2433 skpd (  2.3%)    0.027 s ( 0.000 ms/b)
<pp|pd>:       288880 b         9562 skpd (  3.3%)    0.126 s ( 0.000 ms/b)
<pp|pf>:        82800 b         1271 skpd (  1.5%)    0.051 s ( 0.001 ms/b)
<pp|dd>:       106260 b         3956 skpd (  3.7%)    0.072 s ( 0.001 ms/b)
<pp|df>:        57960 b          958 skpd (  1.7%)    0.060 s ( 0.001 ms/b)
<pp|ff>:         9660 b          122 skpd (  1.3%)    0.017 s ( 0.002 ms/b)
<pd|pd>:       197506 b         8899 skpd (  4.5%)    0.150 s ( 0.001 ms/b)
<pd|pf>:       113040 b         3045 skpd (  2.7%)    0.125 s ( 0.001 ms/b)
<pd|dd>:       145068 b         7478 skpd (  5.2%)    0.181 s ( 0.001 ms/b)
<pd|df>:        79128 b         2115 skpd (  2.7%)    0.154 s ( 0.002 ms/b)
<pd|ff>:        13188 b          296 skpd (  2.2%)    0.044 s ( 0.003 ms/b)
<pf|pf>:        16290 b          107 skpd (  0.7%)    0.032 s ( 0.002 ms/b)
<pf|dd>:        41580 b         1288 skpd (  3.1%)    0.083 s ( 0.002 ms/b)
<pf|df>:        22680 b          145 skpd (  0.6%)    0.076 s ( 0.003 ms/b)
<pf|ff>:         3780 b            8 skpd (  0.2%)    0.023 s ( 0.006 ms/b)
<dd|dd>:        26796 b         1519 skpd (  5.7%)    0.066 s ( 0.003 ms/b)
<dd|df>:        29106 b          907 skpd (  3.1%)    0.107 s ( 0.004 ms/b)
<dd|ff>:         4851 b          127 skpd (  2.6%)    0.032 s ( 0.007 ms/b)
<df|df>:         8001 b           30 skpd (  0.4%)    0.053 s ( 0.007 ms/b)
<df|ff>:         2646 b            0 skpd (  0.0%)    0.031 s ( 0.012 ms/b)
<ff|ff>:          231 b            0 skpd (  0.0%)    0.006 s ( 0.025 ms/b)
Time needed for Fock operator              ...            3.474 sec
Reference energy                           ...   -154.128513514

--------------
DLPNO SETTINGS (2015 fully linear scaling implementation)
--------------

TCutMKN:           1.000e-03
TCutPAO:           1.000e-03
TCutPNO:           3.330e-07
TCutPNOSingles:    9.990e-09
TCutEN:            9.700e-01
TCutPAOExt:        1.000e-01
TCutPairs:         1.000e-04
TCutPre:           1.000e-06
TCutOSV:           1.000e-06
TCutDOij:          1.000e-05
TCutDO:            1.000e-02
TCutC:             1.000e-04
TCutCPAO:          1.000e-03
TCutCMO:           1.000e-03
TScaleDOMP2PreScr: 2.000e+00
TScaleMKNMP2PreScr:1.000e+01
TScalePNOMP2PreScr:1.000e+00
PAO overlap thresh 1.000e-08
Using PNOs for Singles Fock computation
Use new domains
Use fully linear algorithm

--------------------------
Calculating differential overlap integrals ... ok
--------------------------
ELECTRON PAIR PRESCREENING
--------------------------

Dipole-based pair screening          .... used

   TCutDOij = 1.000000e-05
   TCutPre  = 1.000000e-06
   .... Finished loop over pairs
Total time spent in the prescreening                  ...     0.000 sec
sum of pair energies estimated for screened out pairs ...       0.000000000000 Eh
Thresholds for map construction and integral transformation for crude MP2:
   TCutMKN                    ...     1.0e-02
   TCutDO                     ...     2.0e-02
   TCutPairs                  ...     1.0e-04
   TCutPNO_CrudeMP2           ...     3.3e-07
   TCutPNOSingles_CrudeMP2    ...     1.0e-08
--------------------------------
LOCAL RI TRANSFORMATION (IAVPAO)
--------------------------------

Orbital window:       3 to 12
Number of PAOs:     276
Basis functions:    276 (96 shells)
Aux. functions:     594 (168 shells)

Processing maps (0.0 sec)
Average map sizes:
   Aux shells -> MOs              10.0
   Aux shells -> PAOs            276.0
   MOs        -> AO shells        96.0
   PAOs       -> AO shells        96.0

Calculating integrals (0.2 sec, 12.515 MB)
Sorting integrals (0.0 sec, 12.508 MB)
Total time for the integral transformation: 0.2 sec
--------------------------------
INITIAL GUESS AND PNO GENERATION
--------------------------------

PNO truncation parameters                   .... 
    PAOOverlapThresh   =        1.000e-08

    TCutPairs          =        1.000e-04
    TCutPNO            =        3.330e-07
    TCutPNOSingles     =        9.990e-09
    TCutMP2Pairs       =        1.000e-05
    TCutMKN            =        1.000e-02
    TCutDO             =        2.000e-02

Pair selection                          .... not used
Type of local MP2 treatment                 .... semi-local MP2
Strategy for PNO selection                  .... occupation number selection
Pair density normalization                  .... MP2 norm
Spin component scaling                      .... not used

   .... Finished loop over pairs
Making pair pair interaction lists          ... done

                       ===========================
                         55 OF   55 PAIRS ARE KEPT CCSD PAIRS
                          0 OF   55 PAIRS ARE KEPT MP2 PAIRS
                          0 OF   55 PAIRS ARE SKIPPED
                       ===========================

Total time spent in the initial guess                 ...     0.637 sec
SL-MP2 correlation energy (all non-screened pairs)    ...      -0.591927895953 Eh

Initial PNO correlation energy                        ...      -0.590724102812 Eh
sum of pair energies prescreened and skipped MP2 pairs...       0.000000000000 Eh
sum of pair energies of crude MP2 skipped pairs only  ...       0.000000000000 Eh
sum of MP2 pair energies for pairs that were not kept ...       0.000000000000 Eh
sum of PNO error estimates for the kept pairs         ...      -0.001203793141 Eh
                                                          --------------------
sum of all corrections                                         -0.001203793141
Initial total correlation energy                               -0.591927895953
Thresholds for map construction and integral transformation for fine MP2 and CCSD(T) calculation:
   TCutMKN   ...     1.0e-03
   TCutDO    ...     1.0e-02
   TCutPairs ...     1.0e-04
   TCutCMO   ...     1.0e-03
   TCutCPAO  ...     1.0e-03

--------------------------------
LOCAL RI TRANSFORMATION (IAVPAO)
--------------------------------

Orbital window:       3 to 12
Number of PAOs:     276
Basis functions:    276 (96 shells)
Aux. functions:     594 (168 shells)

Processing maps (0.0 sec)
Average map sizes:
   Aux shells -> MOs              10.0
   Aux shells -> PAOs            276.0
   MOs        -> AO shells        96.0
   PAOs       -> AO shells        96.0

Calculating integrals (0.2 sec, 12.515 MB)
Sorting integrals (0.0 sec, 12.508 MB)
Total time for the integral transformation: 0.2 sec
--------------------------------
INITIAL GUESS AND PNO GENERATION
--------------------------------

PNO truncation parameters                   .... 
    PAOOverlapThresh   =        1.000e-08

    TCutPairs          =        1.000e-04
    TCutPNO            =        3.330e-07
    TCutPNOSingles     =        9.990e-09
    TCutMP2Pairs       =        1.000e-05
    TCutMKN            =        1.000e-03
    TCutDO             =        1.000e-02

Pair selection                          .... not used
Type of local MP2 treatment                 .... semi-local MP2
Strategy for PNO selection                  .... occupation number selection
Pair density normalization                  .... MP2 norm
Spin component scaling                      .... not used

   .... Finished loop over pairs

 PNO Occupation Number Statistics: 
  | Av. % of trace(Dij) retained        ...  99.568503551018
  | sigma^2 in % of trace(Dij) retained ...   2.62e-01
  | Av. % of trace(Di) retained         ...  99.998968363563
  | sigma^2 in % of trace(Di) retained  ...   9.31e-08
 Distributions of % trace(Dij) recovered:
  |       >= 99.9  ...    28 ( 50.9 % of all pairs)
  |   [90.0, 99.0) ...     7 ( 12.7 % of all pairs)
  |   [99.0, 99.9) ...    20 ( 36.4 % of all pairs)
 Distributions of % trace(Di) recovered :
  |       >= 99.9  ...    10 (100.0 % of all I-pairs )

Making pair pair interaction lists          ... done

                       ===========================
                         55 OF   55 PAIRS ARE KEPT
                       ===========================

Total time spent in the initial guess                 ...     0.933 sec
SL-MP2 correlation energy (all non-screened pairs)    ...      -0.592035439958 Eh

Initial PNO correlation energy                        ...      -0.590836356088 Eh
sum of pair energies estimated for screened out pairs ...       0.000000000000 Eh
sum of MP2 pair energies for pairs that were not kept ...       0.000000000000 Eh
sum of PNO error estimates for the kept pairs         ...      -0.001199083870 Eh
                                                          --------------------
sum of all corrections                                         -0.001199083870
Initial total correlation energy                               -0.592035439958
Thresholds for map construction and integral transformation for fine MP2 and CCSD(T) calculation:
   TCutMKN   ...     1.0e-03
   TCutDO    ...     1.0e-02
   TCutPairs ...     1.0e-04
   TCutCMO   ...     1.0e-03
   TCutCPAO  ...     1.0e-03

Time for aux screen maps:            0.001
Time for maps after fine MP2:            0.002
-----------------------------
LOCAL RI TRANSFORMATION (IJV)
-----------------------------

Orbital window:       3 to 12
Basis functions:    276 (96 shells)
Aux. functions:     594 (168 shells)

Processing maps (0.0 sec)
Average map sizes:
   Aux shells -> MOs(i)           10.0
   Aux shells -> MOs(j)           10.0
   MOs        -> AO shells        96.0

Calculating integrals (0.2 sec, 0.460 MB)
Sorting integrals (0.0 sec, 0.453 MB)
Total time for the integral transformation: 0.2 sec
--------------------------------
LOCAL RI TRANSFORMATION (VABPAO)
--------------------------------

Number of PAOs:     276
Basis functions:    276 (96 shells)
Aux. functions:     594 (168 shells)

Processing maps (0.0 sec)
Average map sizes:
   Aux shells -> PAOs            276.0
   PAOs       -> AO shells        96.0

Calculating integrals (1.0 sec, 652.674 MB)
Finished


-------------------------------------
Pair Pair Term precalculation with     
RI-(ij|mn) and (im|jn) transformation  
ON THE FLY                             
-------------------------------------

   IBatch   1 (of   2)              ... done (    9.630 sec)
   IBatch   2 (of   2)              ... done (    2.502 sec)
Total EXT                           ...          12.133 sec

---------------------
RI-PNO TRANSFORMATION
---------------------

Total Number of PNOs                   ...  2257
Average number of PNOs per pair        ...    41
Maximal number of PNOs per pair        ...    56
   #pairs with  1 -  5 PNOs   :    0
   #pairs with  6 - 10 PNOs   :    0
   #pairs with 11 - 15 PNOs   :    0
   #pairs with 16 - 20 PNOs   :    6
   #pairs with 21 - 25 PNOs   :    3
   #pairs with 26 - 30 PNOs   :    0
   #pairs with 31 - 35 PNOs   :    8
   #pairs with 36 - 40 PNOs   :   10
   #pairs with 41 - 45 PNOs   :    2
   #pairs with 46 - 50 PNOs   :    9
   #pairs with 51 - 55 PNOs   :   11
   #pairs with 56 - 60 PNOs   :    6

Generation of (ij|ab)[P] integrals            ... on
Generation of (ia|bc)[P],(ja|bc)[P] integrals ... on
Storage of 3 and 4 external integrals         ... on
Generation of ALL (ka|bc)[P] integrals        ... on
Keep RI integrals in memory                   ... off

Ibatch:  1 (of  1)
Starting 2-4 index PNO integral generation ... done

Timings:
Total PNO integral transformation time     ...          5.566 sec
Size of the 3-external file                ...        36 MB
Size of the 4-external file                ...       226 MB
Size of the IKJL file                      ...         0 MB
Size of the all 3-external file            ...       182 MB
Size of the 1-external file                ...         0 MB

Making pair/pair overlap matrices          ... done (    0.284 sec)
Size of the pair overlap file              ... 37 MB
Redoing the guess amplitudes               ... done (    0.001 sec)

-------------------------
FINAL STARTUP INFORMATION
-------------------------

E(0)                                       ...   -154.128513514
E(SL-MP2)                                  ...     -0.592035440
E(SL-MP2) including corrections            ...     -0.592035440
Initial E(tot)                             ...   -154.720548954
<T|T>                                      ...      0.153626321
Number of pairs included                   ... 55
Total number of pairs                      ... 55

------------------------------------------------
                  RHF COUPLED CLUSTER ITERATIONS
------------------------------------------------

Number of PNO amplitudes to be optimized   ...       100251
Number of non-PNO amplitudes               ...      3804295
Untruncated number of regular amplitudes   ...      3804295

Iter       E(tot)           E(Corr)          Delta-E          Residual     Time
  0   -154.720574309     -0.590861711      0.001173729      0.014043133    1.73
                           *** Turning on DIIS ***
  1   -154.746935879     -0.617223282     -0.026361571      0.010544219    1.72
  2   -154.763163572     -0.633450974     -0.016227693      0.002365365    1.72
  3   -154.765960773     -0.636248175     -0.002797201      0.001374402    1.72
  4   -154.766594106     -0.636881508     -0.000633333      0.000242051    1.73
  5   -154.766702484     -0.636989887     -0.000108379      0.000123376    1.74
  6   -154.766724712     -0.637012114     -0.000022227      0.000042406    1.73
  7   -154.766725709     -0.637013111     -0.000000997      0.000016341    1.73
  8   -154.766726421     -0.637013823     -0.000000712      0.000005178    1.73
               --- The Coupled-Cluster iterations have converged ---

----------------------
COUPLED CLUSTER ENERGY
----------------------

E(0)                                       ...   -154.128513514
E(CORR)(strong-pairs)                      ...     -0.637013823
E(CORR)(weak-pairs)                        ...     -0.001199084
E(CORR)(corrected)                         ...     -0.638212907
E(TOT)                                     ...   -154.766726421
Singles Norm <S|S>**1/2                    ...      0.042297857  
T1 diagnostic                              ...      0.009458088  

------------------
LARGEST AMPLITUDES
------------------
   6-> 13   6-> 13       0.049560
   5-> 13   5-> 13       0.049559
   7-> 13   7-> 13       0.039662
  10-> 13  10-> 13       0.039662
  12-> 13  12-> 13       0.039662
   9-> 13   9-> 13       0.039662
  11-> 13  11-> 13       0.039602
   8-> 13   8-> 13       0.039602
   9-> 16   9-> 16       0.026380
  10-> 16  10-> 16       0.026380
   7-> 16   7-> 16       0.026380
  12-> 16  12-> 16       0.026379
  11-> 16  11-> 16       0.025827
   8-> 16   8-> 16       0.025827
  11-> 14  11-> 14       0.025110
   8-> 14   8-> 14       0.025109


        !!!!!!!!!!!!!!!!!!!!!!!!!!!!!!!!!!!!!!!!!!!!!!!!!!!!!!!!!!!!!!!!!!!!!!!!!! 
        !  Warning: Linearized densities requested! These are not the proper     !
        !  density matrices for non-variational theories, e.g., CCSD, QCISD.     !
        !  It is better to use the Density = Unrelaxed option in the input.      !
        !!!!!!!!!!!!!!!!!!!!!!!!!!!!!!!!!!!!!!!!!!!!!!!!!!!!!!!!!!!!!!!!!!!!!!!!!! 

NORM  =      1.195598857 sqrt=     1.093434432
W(HF) =      0.836400933
------------------------------------------------------------------------------
                           ORCA POPULATION ANALYSIS
------------------------------------------------------------------------------
Input electron density              ... dimethyl_ether_DLPNO-CCSD_aug-cc-pVTZ_SPE.mdcip
BaseName (.gbw .S,...)              ... dimethyl_ether_DLPNO-CCSD_aug-cc-pVTZ_SPE

                    ********************************
                    * MULLIKEN POPULATION ANALYSIS *
                    ********************************

-----------------------
MULLIKEN ATOMIC CHARGES
-----------------------
   0 C :   -0.883036
   1 O :   -0.418140
   2 C :   -0.883038
   3 H :    0.352885
   4 H :    0.386344
   5 H :    0.352877
   6 H :    0.352890
   7 H :    0.386344
   8 H :    0.352875
Sum of atomic charges:   -0.0000000

--------------------------------
MULLIKEN REDUCED ORBITAL CHARGES
--------------------------------
  0 C s       :     3.320002  s :     3.320002
      pz      :     1.275033  p :     3.268408
      px      :     0.750156
      py      :     1.243218
      dz2     :     0.041118  d :     0.267092
      dxz     :     0.070747
      dyz     :     0.044162
      dx2y2   :     0.030278
      dxy     :     0.080787
      f0      :     0.003592  f :     0.027535
      f+1     :     0.003036
      f-1     :     0.003144
      f+2     :     0.005144
      f-2     :     0.002639
      f+3     :     0.003009
      f-3     :     0.006971
  1 O s       :     3.823525  s :     3.823525
      pz      :     1.490520  p :     4.502162
      px      :     1.274408
      py      :     1.737234
      dz2     :     0.017479  d :     0.082331
      dxz     :     0.018334
      dyz     :     0.013823
      dx2y2   :     0.018005
      dxy     :     0.014691
      f0      :     0.001731  f :     0.010121
      f+1     :     0.001321
      f-1     :     0.001524
      f+2     :     0.001574
      f-2     :     0.001064
      f+3     :     0.001364
      f-3     :     0.001543
  2 C s       :     3.320006  s :     3.320006
      pz      :     0.906303  p :     3.268408
      px      :     1.241792
      py      :     1.120312
      dz2     :     0.090245  d :     0.267090
      dxz     :     0.027279
      dyz     :     0.043290
      dx2y2   :     0.089064
      dxy     :     0.017213
      f0      :     0.003488  f :     0.027535
      f+1     :     0.007085
      f-1     :     0.004346
      f+2     :     0.003019
      f-2     :     0.003872
      f+3     :     0.004298
      f-3     :     0.001427
  3 H s       :     0.603630  s :     0.603630
      pz      :     0.012479  p :     0.040264
      px      :     0.009475
      py      :     0.018310
      dz2     :    -0.000784  d :     0.003222
      dxz     :     0.000650
      dyz     :     0.003333
      dx2y2   :     0.000225
      dxy     :    -0.000201
  4 H s       :     0.558501  s :     0.558501
      pz      :     0.026824  p :     0.053822
      px      :     0.007714
      py      :     0.019284
      dz2     :     0.001737  d :     0.001333
      dxz     :    -0.000353
      dyz     :     0.000374
      dx2y2   :    -0.000185
      dxy     :    -0.000240
  5 H s       :     0.603635  s :     0.603635
      pz      :     0.017149  p :     0.040267
      px      :     0.009477
      py      :     0.013642
      dz2     :     0.001948  d :     0.003221
      dxz     :    -0.000272
      dyz     :     0.000351
      dx2y2   :     0.000475
      dxy     :     0.000720
  6 H s       :     0.603623  s :     0.603623
      pz      :     0.013223  p :     0.040266
      px      :     0.012866
      py      :     0.014176
      dz2     :    -0.000763  d :     0.003222
      dxz     :     0.001224
      dyz     :     0.000626
      dx2y2   :     0.001862
      dxy     :     0.000272
  7 H s       :     0.558499  s :     0.558499
      pz      :     0.010743  p :     0.053823
      px      :     0.029153
      py      :     0.013926
      dz2     :     0.000217  d :     0.001334
      dxz     :     0.000189
      dyz     :    -0.000018
      dx2y2   :    -0.001042
      dxy     :     0.001988
  8 H s       :     0.603634  s :     0.603634
      pz      :     0.011322  p :     0.040270
      px      :     0.012864
      py      :     0.016083
      dz2     :     0.000475  d :     0.003222
      dxz     :     0.000080
      dyz     :     0.001048
      dx2y2   :     0.000201
      dxy     :     0.001417


                     *******************************
                     * LOEWDIN POPULATION ANALYSIS *
                     *******************************

----------------------
LOEWDIN ATOMIC CHARGES
----------------------
   0 C :    0.276994
   1 O :    0.548952
   2 C :    0.277009
   3 H :   -0.182089
   4 H :   -0.187298
   5 H :   -0.182088
   6 H :   -0.182091
   7 H :   -0.187298
   8 H :   -0.182089

-------------------------------
LOEWDIN REDUCED ORBITAL CHARGES
-------------------------------
  0 C s       :     2.466677  s :     2.466677
      pz      :     0.796343  p :     2.207343
      px      :     0.620662
      py      :     0.790338
      dz2     :     0.108353  d :     0.721423
      dxz     :     0.179774
      dyz     :     0.077936
      dx2y2   :     0.159408
      dxy     :     0.195952
      f0      :     0.037068  f :     0.327563
      f+1     :     0.042275
      f-1     :     0.021541
      f+2     :     0.059715
      f-2     :     0.014530
      f+3     :     0.061079
      f-3     :     0.091354
  1 O s       :     3.012514  s :     3.012514
      pz      :     1.286164  p :     3.840554
      px      :     1.174797
      py      :     1.379594
      dz2     :     0.095454  d :     0.469593
      dxz     :     0.125653
      dyz     :     0.058104
      dx2y2   :     0.096805
      dxy     :     0.093578
      f0      :     0.028575  f :     0.128387
      f+1     :     0.013420
      f-1     :     0.011145
      f+2     :     0.028957
      f-2     :     0.009583
      f+3     :     0.011230
      f-3     :     0.025477
  2 C s       :     2.466679  s :     2.466679
      pz      :     0.678211  p :     2.207341
      px      :     0.778165
      py      :     0.750965
      dz2     :     0.228389  d :     0.721412
      dxz     :     0.098141
      dyz     :     0.156879
      dx2y2   :     0.175023
      dxy     :     0.062979
      f0      :     0.064726  f :     0.327560
      f+1     :     0.050442
      f-1     :     0.067885
      f+2     :     0.055236
      f-2     :     0.046588
      f+3     :     0.026200
      f-3     :     0.016483
  3 H s       :     0.646360  s :     0.646360
      pz      :     0.089740  p :     0.312274
      px      :     0.070152
      py      :     0.152381
      dz2     :     0.016459  d :     0.223456
      dxz     :     0.010981
      dyz     :     0.082935
      dx2y2   :     0.066919
      dxy     :     0.046161
  4 H s       :     0.654247  s :     0.654247
      pz      :     0.134785  p :     0.307706
      px      :     0.067788
      py      :     0.105133
      dz2     :     0.076565  d :     0.225345
      dxz     :     0.040398
      dyz     :     0.049734
      dx2y2   :     0.039145
      dxy     :     0.019503
  5 H s       :     0.646364  s :     0.646364
      pz      :     0.139250  p :     0.312271
      px      :     0.070149
      py      :     0.102873
      dz2     :     0.076202  d :     0.223453
      dxz     :     0.038406
      dyz     :     0.048996
      dx2y2   :     0.041114
      dxy     :     0.018735
  6 H s       :     0.646362  s :     0.646362
      pz      :     0.118006  p :     0.312273
      px      :     0.097569
      py      :     0.096698
      dz2     :     0.060166  d :     0.223456
      dxz     :     0.052121
      dyz     :     0.051980
      dx2y2   :     0.044073
      dxy     :     0.015116
  7 H s       :     0.654248  s :     0.654248
      pz      :     0.072621  p :     0.307706
      px      :     0.150667
      py      :     0.084418
      dz2     :     0.022224  d :     0.225345
      dxz     :     0.074039
      dyz     :     0.006998
      dx2y2   :     0.043651
      dxy     :     0.078432
  8 H s       :     0.646364  s :     0.646364
      pz      :     0.069866  p :     0.312271
      px      :     0.097562
      py      :     0.144843
      dz2     :     0.021524  d :     0.223454
      dxz     :     0.005975
      dyz     :     0.072812
      dx2y2   :     0.061877
      dxy     :     0.061267


                      *****************************
                      * MAYER POPULATION ANALYSIS *
                      *****************************

  NA   - Mulliken gross atomic population
  ZA   - Total nuclear charge
  QA   - Mulliken gross atomic charge
  VA   - Mayer's total valence
  BVA  - Mayer's bonded valence
  FA   - Mayer's free valence

  ATOM       NA         ZA         QA         VA         BVA        FA
  0 C      6.8830     6.0000    -0.8830     3.7725     3.4271     0.3453
  1 O      8.4181     8.0000    -0.4181     2.3146     1.8859     0.4287
  2 C      6.8830     6.0000    -0.8830     3.7725     3.4271     0.3453
  3 H      0.6471     1.0000     0.3529     0.9507     0.8843     0.0664
  4 H      0.6137     1.0000     0.3863     0.9778     0.9128     0.0650
  5 H      0.6471     1.0000     0.3529     0.9507     0.8843     0.0664
  6 H      0.6471     1.0000     0.3529     0.9507     0.8843     0.0664
  7 H      0.6137     1.0000     0.3863     0.9778     0.9128     0.0650
  8 H      0.6471     1.0000     0.3529     0.9507     0.8843     0.0664

  Mayer bond orders larger than 0.100000
B(  0-C ,  1-O ) :   0.9384 B(  0-C ,  3-H ) :   0.7910 B(  0-C ,  4-H ) :   0.8220 
B(  0-C ,  5-H ) :   0.7910 B(  1-O ,  2-C ) :   0.9384 B(  2-C ,  6-H ) :   0.7910 
B(  2-C ,  7-H ) :   0.8220 B(  2-C ,  8-H ) :   0.7910 


Maximum memory used throughout the entire calculation: 955.7 MB


------------------------------------------------------------------------------- 
                                     TIMINGS                                   
------------------------------------------------------------------------------- 


Total execution time                   ...       41.098 sec

Localization of occupied MO's          ...        0.259 sec (  0.6%)
Fock Matrix Formation                  ...        3.474 sec (  8.5%)
Global overlap, Fock, MKN matrices     ...        0.083 sec (  0.2%)
Differential overlap integrals         ...        0.039 sec (  0.1%)
Organizing maps                        ...        0.006 sec (  0.0%)
RI 3-index integral generations        ...        1.689 sec (  4.1%)
RI-PNO integral transformation         ...       17.999 sec ( 43.8%)
Initial Guess                          ...        1.627 sec (  4.0%)
DIIS Solver                            ...        0.037 sec (  0.1%)
State Vector Update                    ...        0.002 sec (  0.0%)
Sigma-vector construction              ...       15.515 sec ( 37.8%)
  <D|H|D>(0-ext)                       ...        0.253 sec (  1.6% of sigma)
  <D|H|D>(2-ext Fock)                  ...        0.005 sec (  0.0% of sigma)
  <D|H|D>(2-ext)                       ...        2.507 sec ( 16.2% of sigma)
  <D|H|D>(4-ext)                       ...        2.204 sec ( 14.2% of sigma)
  <D|H|D>(4-ext-corr)                  ...        8.802 sec ( 56.7% of sigma)
  CCSD doubles correction              ...        0.012 sec (  0.1% of sigma)
  <S|H|S>                              ...        0.130 sec (  0.8% of sigma)
  <S|H|D>(1-ext)                       ...        0.051 sec (  0.3% of sigma)
  <S|H|D>(3-ext)                       ...        0.035 sec (  0.2% of sigma)
  Fock-dressing                        ...        0.769 sec (  5.0% of sigma)
  Singles amplitudes                   ...        0.056 sec (  0.4% of sigma)
  (ik|jl)-dressing                     ...        0.192 sec (  1.2% of sigma)
  (ij|ab),(ia|jb)-dressing             ...        0.452 sec (  2.9% of sigma)
  Pair energies                        ...        0.002 sec (  0.0% of sigma)
One-particle density matrix            ...        0.185 sec (  0.4%)


-------------------------   --------------------
FINAL SINGLE POINT ENERGY      -154.766726420717
-------------------------   --------------------


                            ***************************************
                            *     ORCA property calculations      *
                            ***************************************

                                    ---------------------
                                    Active property flags
                                    ---------------------
   (+) Dipole Moment


------------------------------------------------------------------------------
                       ORCA ELECTRIC PROPERTIES CALCULATION
------------------------------------------------------------------------------

Dipole Moment Calculation                       ... on
Quadrupole Moment Calculation                   ... off
Polarizability Calculation                      ... off
GBWName                                         ... dimethyl_ether_DLPNO-CCSD_aug-cc-pVTZ_SPE.gbw
Electron density file                           ... dimethyl_ether_DLPNO-CCSD_aug-cc-pVTZ_SPE.scfp
The origin for moment calculation is the CENTER OF MASS  = ( 0.622203,  0.439977  0.762038)

-------------
DIPOLE MOMENT
-------------
                                X             Y             Z
Electronic contribution:     -1.13685      -0.80383      -1.39230
Nuclear contribution   :      1.47463       1.04267       1.80602
                        -----------------------------------------
Total Dipole Moment    :      0.33777       0.23884       0.41372
                        -----------------------------------------
Magnitude (a.u.)       :      0.58506
Magnitude (Debye)      :      1.48711



--------------------
Rotational spectrum 
--------------------
 
Rotational constants in cm-1:     1.286004     0.339768     0.299167 
Rotational constants in MHz : 38553.444095 10185.980426  8968.803123 

 Dipole components along the rotational axes: 
x,y,z [a.u.] :    -0.000017     0.585062    -0.000003 
x,y,z [Debye]:    -0.000042     1.487110    -0.000009 

 

                           *** MDCI DENSITY ***

------------------------------------------------------------------------------
                       ORCA ELECTRIC PROPERTIES CALCULATION
------------------------------------------------------------------------------

Dipole Moment Calculation                       ... on
Quadrupole Moment Calculation                   ... off
Polarizability Calculation                      ... off
GBWName                                         ... dimethyl_ether_DLPNO-CCSD_aug-cc-pVTZ_SPE.gbw
Electron density file                           ... dimethyl_ether_DLPNO-CCSD_aug-cc-pVTZ_SPE.mdcip
The origin for moment calculation is the CENTER OF MASS  = ( 0.622203,  0.439977  0.762038)

-------------
DIPOLE MOMENT
-------------
                                X             Y             Z
Electronic contribution:     -1.17449      -0.83044      -1.43840
Nuclear contribution   :      1.47463       1.04267       1.80602
                        -----------------------------------------
Total Dipole Moment    :      0.30014       0.21223       0.36762
                        -----------------------------------------
Magnitude (a.u.)       :      0.51987
Magnitude (Debye)      :      1.32142



--------------------
Rotational spectrum 
--------------------
 
Rotational constants in cm-1:     1.286004     0.339768     0.299167 
Rotational constants in MHz : 38553.444095 10185.980426  8968.803123 

 Dipole components along the rotational axes: 
x,y,z [a.u.] :    -0.000014     0.519875    -0.000003 
x,y,z [Debye]:    -0.000035     1.321416    -0.000007 

 

Timings for individual modules:

Sum of individual times         ...       67.471 sec (=   1.125 min)
GTO integral calculation        ...        0.439 sec (=   0.007 min)   0.7 %
SCF iterations                  ...       25.682 sec (=   0.428 min)  38.1 %
MDCI module                     ...       41.349 sec (=   0.689 min)  61.3 %
                             ****ORCA TERMINATED NORMALLY****
TOTAL RUN TIME: 0 days 0 hours 1 minutes 7 seconds 756 msec
