
                                 *****************
                                 * O   R   C   A *
                                 *****************

           --- An Ab Initio, DFT and Semiempirical electronic structure package ---

                  #######################################################
                  #                        -***-                        #
                  #          Department of theory and spectroscopy      #
                  #               Directorship: Frank Neese             #
                  #        Max Planck Institute fuer Kohlenforschung    #
                  #                Kaiser Wilhelm Platz 1               #
                  #                 D-45470 Muelheim/Ruhr               #
                  #                      Germany                        #
                  #                                                     #
                  #                  All rights reserved                #
                  #                        -***-                        #
                  #######################################################


                         Program Version 4.2.1 -  RELEASE  -


 With contributions from (in alphabetic order):
   Daniel Aravena         : Magnetic Suceptibility
   Michael Atanasov       : Ab Initio Ligand Field Theory (pilot matlab implementation)
   Alexander A. Auer      : GIAO ZORA, VPT2
   Ute Becker             : Parallelization
   Giovanni Bistoni       : ED, misc. LED, open-shell LED, HFLD
   Martin Brehm           : Molecular dynamics
   Dmytro Bykov           : SCF Hessian
   Vijay G. Chilkuri      : MRCI spin determinant printing, contributions to CSF-ICE
   Dipayan Datta          : RHF DLPNO-CCSD density
   Achintya Kumar Dutta   : EOM-CC, STEOM-CC
   Dmitry Ganyushin       : Spin-Orbit,Spin-Spin,Magnetic field MRCI
   Miquel Garcia          : C-PCM Hessian, Gaussian charge scheme
   Yang Guo               : DLPNO-NEVPT2, CIM, IAO-localization
   Andreas Hansen         : Spin unrestricted coupled pair/coupled cluster methods
   Benjamin Helmich-Paris : CASSCF linear response (MC-RPA)
   Lee Huntington         : MR-EOM, pCC
   Robert Izsak           : Overlap fitted RIJCOSX, COSX-SCS-MP3, EOM
   Christian Kollmar      : KDIIS, OOCD, Brueckner-CCSD(T), CCSD density
   Simone Kossmann        : Meta GGA functionals, TD-DFT gradient, OOMP2, MP2 Hessian
   Martin Krupicka        : AUTO-CI
   Lucas Lang             : DCDCAS
   Dagmar Lenk            : GEPOL surface, SMD
   Dimitrios Liakos       : Extrapolation schemes; Compound Job, initial MDCI parallelization
   Dimitrios Manganas     : Further ROCIS development; embedding schemes
   Dimitrios Pantazis     : SARC Basis sets
   Taras Petrenko         : DFT Hessian,TD-DFT gradient, ASA, ECA, R-Raman, ABS, FL, XAS/XES, NRVS
   Peter Pinski           : DLPNO-MP2, DLPNO-MP2 Gradient
   Christoph Reimann      : Effective Core Potentials
   Marius Retegan         : Local ZFS, SOC
   Christoph Riplinger    : Optimizer, TS searches, QM/MM, DLPNO-CCSD(T), (RO)-DLPNO pert. Triples
   Tobias Risthaus        : Range-separated hybrids, TD-DFT gradient, RPA, STAB
   Michael Roemelt        : Original ROCIS implementation
   Masaaki Saitow         : Open-shell DLPNO-CCSD energy and density
   Barbara Sandhoefer     : DKH picture change effects
   Avijit Sen             : IP-ROCIS
   Kantharuban Sivalingam : CASSCF convergence, NEVPT2, FIC-MRCI
   Bernardo de Souza      : ESD, SOC TD-DFT
   Georgi Stoychev        : AutoAux, RI-MP2 NMR
   Willem Van den Heuvel  : Paramagnetic NMR
   Boris Wezisla          : Elementary symmetry handling
   Frank Wennmohs         : Technical directorship


 We gratefully acknowledge several colleagues who have allowed us to
 interface, adapt or use parts of their codes:
   Stefan Grimme, W. Hujo, H. Kruse,             : VdW corrections, initial TS optimization,
                  C. Bannwarth                     DFT functionals, gCP, sTDA/sTD-DF
   Ed Valeev, F. Pavosevic, A. Kumar             : LibInt (2-el integral package), F12 methods
   Garnet Chan, S. Sharma, J. Yang, R. Olivares  : DMRG
   Ulf Ekstrom                                   : XCFun DFT Library
   Mihaly Kallay                                 : mrcc  (arbitrary order and MRCC methods)
   Andreas Klamt, Michael Diedenhofen            : otool_cosmo (COSMO solvation model)
   Jiri Pittner, Ondrej Demel                    : Mk-CCSD
   Frank Weinhold                                : gennbo (NPA and NBO analysis)
   Christopher J. Cramer and Donald G. Truhlar   : smd solvation model
   Lars Goerigk                                  : TD-DFT with DH, B97 family of functionals
   V. Asgeirsson, H. Jonsson                     : NEB implementation
   FAccTs GmbH                                   : IRC, NEB, NEB-TS, Multilevel, MM, QM/MM, CI optimization
   S Lehtola, MJT Oliveira, MAL Marques          : LibXC Library


 Your calculation uses the libint2 library for the computation of 2-el integrals
 For citations please refer to: http://libint.valeyev.net

 Your ORCA version has been built with support for libXC version: 4.2.3
 For citations please refer to: https://tddft.org/programs/libxc/

 This ORCA versions uses:
   CBLAS   interface :  Fast vector & matrix operations
   LAPACKE interface :  Fast linear algebra routines
   SCALAPACK package :  Parallel linear algebra routines




***************************************
The coordinates will be read from file: dimethyl_ether_B3LYP_cc-pVTZ_OPT.xyz
***************************************


----- Orbital basis set information -----
Your calculation utilizes the basis: aug-cc-pVTZ 
    H, B-Ne : Obtained from the ccRepo (grant-hill.group.shef.ac.uk/ccrepo) Feb. 2017
              R. A. Kendall, T. H. Dunning, Jr., R. J. Harrison, J. Chem. Phys. 96, 6796 (1992)
         He : Obtained from the ccRepo (grant-hill.group.shef.ac.uk/ccrepo) Feb. 2017
              D. E. Woon, T. H. Dunning, Jr., J. Chem. Phys. 100, 2975 (1994)
  Li-Be, Na : Obtained from the ccRepo (grant-hill.group.shef.ac.uk/ccrepo) Feb. 2017
              B. P. Prascher, D. E. Woon, K. A. Peterson, T. H. Dunning, Jr., A. K. Wilson, Theor. Chem. Acc. 128, 69 (2011)
         Mg : Obtained from the Peterson Research Group Website (tyr0.chem.wsu.edu/~kipeters) Feb. 2017
              B. P. Prascher, D. E. Woon, K. A. Peterson, T. H. Dunning, Jr., A. K. Wilson, Theor. Chem. Acc. 128, 69 (2011)
      Al-Ar : Obtained from the ccRepo (grant-hill.group.shef.ac.uk/ccrepo) Feb. 2017
              D. E. Woon, T. H. Dunning, Jr., J. Chem. Phys. 98, 1358 (1993)
      Sc-Zn : Obtained from the ccRepo (grant-hill.group.shef.ac.uk/ccrepo) Feb. 2017
              N. B. Balabanov, K. A. Peterson, J. Chem. Phys. 123, 064107 (2005)
              N. B. Balabanov, K. A. Peterson, J. Chem. Phys. 125, 074110 (2006)
      Ga-Kr : Obtained from the ccRepo (grant-hill.group.shef.ac.uk/ccrepo) Feb. 2017
              A. K. Wilson, D. E. Woon, K. A. Peterson, T. H. Dunning, Jr., J. Chem. Phys. 110, 7667 (1999)
     Ag, Au : Obtained from the Peterson Research Group Website (tyr0.chem.wsu.edu/~kipeters) Feb. 2017
              K. A. Peterson, C. Puzzarini, Theor. Chem. Acc. 114, 283 (2005)

================================================================================
                                        WARNINGS
                       Please study these warnings very carefully!
================================================================================


WARNING: The frozen-core approximation for MP2-gradient calculations is turned on by default.

WARNING: Geometry Optimization
  ===> : Switching off AutoStart
         For restart on a previous wavefunction, please use MOREAD

WARNING: Post HF methods need fully converged wavefunctions
  ===> : Setting SCFConvForced true
         You can overwrite this default with %scf ConvForced false 


INFO   : the flag for use of LIBINT has been found!

================================================================================
                                       INPUT FILE
================================================================================
NAME = dimethyl_ether_MP2_aug-cc-pVTZ_OPT.inp
|  1> # dimethyl_ether MP2/aug-cc-pVTZ Optimization
|  2> 
|  3> ! MP2 aug-cc-pVTZ TightSCF Opt PAL16
|  4> %maxcore 1000
|  5> 
|  6> * xyzfile 0 1 dimethyl_ether_B3LYP_cc-pVTZ_OPT.xyz
|  7> 
|  8> 
|  9>                          ****END OF INPUT****
================================================================================

                       *****************************
                       * Geometry Optimization Run *
                       *****************************

Geometry optimization settings:
Update method            Update   .... BFGS
Choice of coordinates    CoordSys .... Z-matrix Internals
Initial Hessian          InHess   .... Almoef's Model

Convergence Tolerances:
Energy Change            TolE     ....  5.0000e-06 Eh
Max. Gradient            TolMAXG  ....  3.0000e-04 Eh/bohr
RMS Gradient             TolRMSG  ....  1.0000e-04 Eh/bohr
Max. Displacement        TolMAXD  ....  4.0000e-03 bohr
RMS Displacement         TolRMSD  ....  2.0000e-03 bohr
Strict Convergence                ....  False
------------------------------------------------------------------------------
                        ORCA OPTIMIZATION COORDINATE SETUP
------------------------------------------------------------------------------

The optimization will be done in new redundant internal coordinates
Making redundant internal coordinates   ...  (new redundants) done
Evaluating the initial hessian          ...  (Almloef) done
Evaluating the coordinates              ...  done
Calculating the B-matrix                .... done
Calculating the G-matrix                .... done
Diagonalizing the G-matrix              .... done
The first mode is                       ....    6
The number of degrees of freedom        ....   21

    -----------------------------------------------------------------
                    Redundant Internal Coordinates


    -----------------------------------------------------------------
         Definition                    Initial Value    Approx d2E/dq
    -----------------------------------------------------------------
      1. B(O   1,C   0)                  1.4096         0.520744   
      2. B(C   2,O   1)                  1.4100         0.520035   
      3. B(H   3,C   0)                  1.0978         0.349903   
      4. B(H   4,C   0)                  1.0889         0.361544   
      5. B(H   5,C   0)                  1.0982         0.349436   
      6. B(H   6,C   2)                  1.0979         0.349739   
      7. B(H   7,C   2)                  1.0891         0.361299   
      8. B(H   8,C   2)                  1.0978         0.349927   
      9. A(H   3,C   0,H   4)          108.8695         0.289713   
     10. A(O   1,C   0,H   3)          111.6518         0.338973   
     11. A(O   1,C   0,H   4)          107.5063         0.340832   
     12. A(H   3,C   0,H   5)          108.2875         0.288172   
     13. A(O   1,C   0,H   5)          111.5946         0.338897   
     14. A(H   4,C   0,H   5)          108.8653         0.289652   
     15. A(C   0,O   1,C   2)          112.6661         0.402540   
     16. A(H   7,C   2,H   8)          108.9167         0.289685   
     17. A(H   6,C   2,H   8)          108.2551         0.288214   
     18. A(O   1,C   2,H   8)          111.6155         0.338900   
     19. A(H   6,C   2,H   7)          108.9316         0.289661   
     20. A(O   1,C   2,H   7)          107.4662         0.340715   
     21. A(O   1,C   2,H   6)          111.5948         0.338869   
     22. D(C   2,O   1,C   0,H   5)     60.7211         0.021502   
     23. D(C   2,O   1,C   0,H   3)    -60.6260         0.021502   
     24. D(C   2,O   1,C   0,H   4)   -179.9717         0.021502   
     25. D(H   8,C   2,O   1,C   0)     60.6827         0.021441   
     26. D(H   7,C   2,O   1,C   0)   -179.9603         0.021441   
     27. D(H   6,C   2,O   1,C   0)    -60.5972         0.021441   
    -----------------------------------------------------------------

Number of atoms                         .... 9
Number of degrees of freedom            .... 27

         *************************************************************
         *                GEOMETRY OPTIMIZATION CYCLE   1            *
         *************************************************************
---------------------------------
CARTESIAN COORDINATES (ANGSTROEM)
---------------------------------
  C      1.432719   -0.002813   -0.005022
  O      0.023678    0.016780    0.028992
  C     -0.483222    0.674751    1.168339
  H      1.851529    1.011759   -0.026237
  H      1.731230   -0.526070   -0.912115
  H      1.850668   -0.530060    0.862927
  H     -0.160781    0.183276    2.095686
  H     -1.570163    0.639859    1.109429
  H     -0.162319    1.723938    1.205662

----------------------------
CARTESIAN COORDINATES (A.U.)
----------------------------
  NO LB      ZA    FRAG     MASS         X           Y           Z
   0 C     6.0000    0    12.011    2.707447   -0.005316   -0.009490
   1 O     8.0000    0    15.999    0.044745    0.031709    0.054787
   2 C     6.0000    0    12.011   -0.913156    1.275094    2.207840
   3 H     1.0000    0     1.008    3.498883    1.911947   -0.049582
   4 H     1.0000    0     1.008    3.271550   -0.994128   -1.723648
   5 H     1.0000    0     1.008    3.497256   -1.001667    1.630696
   6 H     1.0000    0     1.008   -0.303832    0.346341    3.960272
   7 H     1.0000    0     1.008   -2.967178    1.209159    2.096517
   8 H     1.0000    0     1.008   -0.306738    3.257771    2.278370

--------------------------------
INTERNAL COORDINATES (ANGSTROEM)
--------------------------------
 C      0   0   0     0.000000000000     0.00000000     0.00000000
 O      1   0   0     1.409587667487     0.00000000     0.00000000
 C      2   1   0     1.409958662031   112.66607447     0.00000000
 H      1   2   3     1.097819524906   111.65182804   299.37402646
 H      1   2   3     1.088910300904   107.50632850   180.02828525
 H      1   2   3     1.098183033069   111.59459814    60.72112475
 H      3   2   1     1.097947240877   111.59480362   299.40280157
 H      3   2   1     1.089095482561   107.46621432   180.03968717
 H      3   2   1     1.097800644133   111.61553600    60.68273853

---------------------------
INTERNAL COORDINATES (A.U.)
---------------------------
 C      0   0   0     0.000000000000     0.00000000     0.00000000
 O      1   0   0     2.663734653303     0.00000000     0.00000000
 C      2   1   0     2.664435731389   112.66607447     0.00000000
 H      1   2   3     2.074578246544   111.65182804   299.37402646
 H      1   2   3     2.057742253114   107.50632850   180.02828525
 H      1   2   3     2.075265177420   111.59459814    60.72112475
 H      3   2   1     2.074819594752   111.59480362   299.40280157
 H      3   2   1     2.058092195731   107.46621432   180.03968717
 H      3   2   1     2.074542567054   111.61553600    60.68273853

---------------------
BASIS SET INFORMATION
---------------------
There are 3 groups of distinct atoms

 Group   1 Type C   : 19s6p3d2f contracted to 5s4p3d2f pattern {88111/3111/111/11}
 Group   2 Type O   : 19s6p3d2f contracted to 5s4p3d2f pattern {88111/3111/111/11}
 Group   3 Type H   : 6s3p2d contracted to 4s3p2d pattern {3111/111/11}

Atom   0C    basis set group =>   1
Atom   1O    basis set group =>   2
Atom   2C    basis set group =>   1
Atom   3H    basis set group =>   3
Atom   4H    basis set group =>   3
Atom   5H    basis set group =>   3
Atom   6H    basis set group =>   3
Atom   7H    basis set group =>   3
Atom   8H    basis set group =>   3


           ************************************************************
           *        Program running with 16 parallel MPI-processes    *
           *              working on a common directory               *
           ************************************************************
------------------------------------------------------------------------------
                           ORCA GTO INTEGRAL CALCULATION
------------------------------------------------------------------------------

                         BASIS SET STATISTICS AND STARTUP INFO

 # of primitive gaussian shells          ...  156
 # of primitive gaussian functions       ...  348
 # of contracted shells                  ...   96
 # of contracted basis functions         ...  276
 Highest angular momentum                ...    3
 Maximum contraction depth               ...    8
 Integral package used                   ... LIBINT
 Integral threshhold            Thresh   ...  2.500e-11
 Primitive cut-off              TCut     ...  2.500e-12


------------------------------ INTEGRAL EVALUATION ----------------------------


 * One electron integrals 
 Pre-screening matrix                    ... done
 Shell pair data                         ... done (   0.001 sec)



           ************************************************************
           *        Program running with 16 parallel MPI-processes    *
           *              working on a common directory               *
           ************************************************************
-------------------------------------------------------------------------------
                                 ORCA SCF
-------------------------------------------------------------------------------

------------
SCF SETTINGS
------------
Hamiltonian:
 Ab initio Hamiltonian  Method          .... Hartree-Fock(GTOs)


General Settings:
 Integral files         IntName         .... dimethyl_ether_MP2_aug-cc-pVTZ_OPT
 Hartree-Fock type      HFTyp           .... RHF
 Total Charge           Charge          ....    0
 Multiplicity           Mult            ....    1
 Number of Electrons    NEL             ....   26
 Basis Dimension        Dim             ....  276
 Nuclear Repulsion      ENuc            ....     83.8938468051 Eh

Convergence Acceleration:
 DIIS                   CNVDIIS         .... on
   Start iteration      DIISMaxIt       ....    12
   Startup error        DIISStart       ....  0.200000
   # of expansion vecs  DIISMaxEq       ....     5
   Bias factor          DIISBfac        ....   1.050
   Max. coefficient     DIISMaxC        ....  10.000
 Newton-Raphson         CNVNR           .... off
 SOSCF                  CNVSOSCF        .... on
   Start iteration      SOSCFMaxIt      ....   150
   Startup grad/error   SOSCFStart      ....  0.003300
 Level Shifting         CNVShift        .... on
   Level shift para.    LevelShift      ....    0.2500
   Turn off err/grad.   ShiftErr        ....    0.0010
 Zerner damping         CNVZerner       .... off
 Static damping         CNVDamp         .... on
   Fraction old density DampFac         ....    0.7000
   Max. Damping (<1)    DampMax         ....    0.9800
   Min. Damping (>=0)   DampMin         ....    0.0000
   Turn off err/grad.   DampErr         ....    0.1000
 Fernandez-Rico         CNVRico         .... off

SCF Procedure:
 Maximum # iterations   MaxIter         ....   125
 SCF integral mode      SCFMode         .... Direct
   Integral package                     .... LIBINT
 Reset frequency        DirectResetFreq ....    20
 Integral Threshold     Thresh          ....  2.500e-11 Eh
 Primitive CutOff       TCut            ....  2.500e-12 Eh

Convergence Tolerance:
 Convergence Check Mode ConvCheckMode   .... Total+1el-Energy
 Convergence forced     ConvForced      .... 1
 Energy Change          TolE            ....  1.000e-08 Eh
 1-El. energy change                    ....  1.000e-05 Eh
 Orbital Gradient       TolG            ....  1.000e-05
 Orbital Rotation angle TolX            ....  1.000e-05
 DIIS Error             TolErr          ....  5.000e-07


Diagonalization of the overlap matrix:
Smallest eigenvalue                        ... 2.807e-05
Time for diagonalization                   ...    0.015 sec
Threshold for overlap eigenvalues          ... 1.000e-08
Number of eigenvalues below threshold      ... 0
Time for construction of square roots      ...    0.021 sec
Total time needed                          ...    0.036 sec

-------------------
DFT GRID GENERATION
-------------------

General Integration Accuracy     IntAcc      ...  4.340
Radial Grid Type                 RadialGrid  ... Gauss-Chebyshev
Angular Grid (max. acc.)         AngularGrid ... Lebedev-110
Angular grid pruning method      GridPruning ... 3 (G Style)
Weight generation scheme         WeightScheme... Becke
Basis function cutoff            BFCut       ...    1.0000e-11
Integration weight cutoff        WCut        ...    1.0000e-14
Grids for H and He will be reduced by one unit

# of grid points (after initial pruning)     ...   9792 (   0.0 sec)
# of grid points (after weights+screening)   ...   9370 (   0.0 sec)
nearest neighbour list constructed           ...    0.0 sec
Grid point re-assignment to atoms done       ...    0.0 sec
Grid point division into batches done        ...    0.0 sec
Reduced shell lists constructed in    0.0 sec

Total number of grid points                  ...     9370
Total number of batches                      ...      150
Average number of points per batch           ...       62
Average number of grid points per atom       ...     1041
Average number of shells per batch           ...    84.91 (88.45%)
Average number of basis functions per batch  ...   244.73 (88.67%)
Average number of large shells per batch     ...    78.64 (92.61%)
Average number of large basis fcns per batch ...   226.27 (92.46%)
Maximum spatial batch extension              ...   1.73,  2.14,  2.09 au
Average spatial batch extension              ...   0.09,  0.10,  0.10 au

Time for grid setup =    0.100 sec

------------------------------
INITIAL GUESS: MODEL POTENTIAL
------------------------------
Loading Hartree-Fock densities                     ... done
Calculating cut-offs                               ... done
Setting up the integral package                    ... done
Initializing the effective Hamiltonian             ... done
Starting the Coulomb interaction                   ... done (   0.0 sec)
Reading the grid                                   ... done
Mapping shells                                     ... done
Starting the XC term evaluation                    ... done (   0.0 sec)
Transforming the Hamiltonian                       ... done (   0.0 sec)
Diagonalizing the Hamiltonian                      ... done (   0.0 sec)
Back transforming the eigenvectors                 ... done (   0.0 sec)
Now organizing SCF variables                       ... done
                      ------------------
                      INITIAL GUESS DONE (   0.3 sec)
                      ------------------
--------------
SCF ITERATIONS
--------------
ITER       Energy         Delta-E        Max-DP      RMS-DP      [F,P]     Damp
               ***  Starting incremental Fock matrix formation  ***
  0   -153.9804754639   0.000000000000 0.02775006  0.00057551  0.2083264 0.7000
  1   -154.0312078146  -0.050732350713 0.02038747  0.00043565  0.1457665 0.7000
                               ***Turning on DIIS***
  2   -154.0625916159  -0.031383801294 0.01484691  0.00030627  0.1095830 0.7000
  3   -154.4542869347  -0.391695318716 0.03733797  0.00078212  0.0813311 0.0000
  4   -154.1018107962   0.352476138504 0.00454812  0.00011564  0.0056148 0.0000
                      *** Initiating the SOSCF procedure ***
                           *** Shutting down DIIS ***
                      *** Re-Reading the Fockian *** 
                      *** Removing any level shift *** 
ITER      Energy       Delta-E        Grad      Rot      Max-DP    RMS-DP
  5   -154.12722349  -0.0254126973  0.001126  0.001126  0.001657  0.000041
               *** Restarting incremental Fock matrix formation ***
  6   -154.12870425  -0.0014807542  0.000348  0.000313  0.000637  0.000013
  7   -154.12870927  -0.0000050189  0.000130  0.000210  0.000269  0.000007
  8   -154.12871010  -0.0000008312  0.000046  0.000047  0.000050  0.000001
  9   -154.12871016  -0.0000000575  0.000008  0.000007  0.000016  0.000000
 10   -154.12871016  -0.0000000014  0.000003  0.000003  0.000004  0.000000
                  ***Gradient check signals convergence***
              ***Rediagonalizing the Fockian in SOSCF/NRSCF***

               *****************************************************
               *                     SUCCESS                       *
               *           SCF CONVERGED AFTER  11 CYCLES          *
               *****************************************************


----------------
TOTAL SCF ENERGY
----------------

Total Energy       :         -154.12871016 Eh           -4194.05543 eV

Components:
Nuclear Repulsion  :           83.89384681 Eh            2282.86763 eV
Electronic Energy  :         -238.02255696 Eh           -6476.92306 eV
One Electron Energy:         -375.56199418 Eh          -10219.56141 eV
Two Electron Energy:          137.53943721 Eh            3742.63836 eV

Virial components:
Potential Energy   :         -308.00869281 Eh           -8381.34263 eV
Kinetic Energy     :          153.87998265 Eh            4187.28721 eV
Virial Ratio       :            2.00161637


---------------
SCF CONVERGENCE
---------------

  Last Energy change         ...   -6.1323e-10  Tolerance :   1.0000e-08
  Last MAX-Density change    ...    1.0783e-06  Tolerance :   1.0000e-07
  Last RMS-Density change    ...    2.9066e-08  Tolerance :   5.0000e-09
  Last Orbital Gradient      ...    4.9308e-07  Tolerance :   1.0000e-05
  Last Orbital Rotation      ...    7.0983e-07  Tolerance :   1.0000e-05

             **** THE GBW FILE WAS UPDATED (dimethyl_ether_MP2_aug-cc-pVTZ_OPT.gbw) ****
             **** DENSITY FILE WAS UPDATED (dimethyl_ether_MP2_aug-cc-pVTZ_OPT.scfp) ****
             **** ENERGY FILE WAS UPDATED (dimethyl_ether_MP2_aug-cc-pVTZ_OPT.en.tmp) ****
             **** THE GBW FILE WAS UPDATED (dimethyl_ether_MP2_aug-cc-pVTZ_OPT.gbw) ****
             **** DENSITY FILE WAS UPDATED (dimethyl_ether_MP2_aug-cc-pVTZ_OPT.scfp) ****
----------------
ORBITAL ENERGIES
----------------

  NO   OCC          E(Eh)            E(eV) 
   0   2.0000     -20.556976      -559.3838 
   1   2.0000     -11.269540      -306.6598 
   2   2.0000     -11.269481      -306.6582 
   3   2.0000      -1.372887       -37.3582 
   4   2.0000      -0.969010       -26.3681 
   5   2.0000      -0.873543       -23.7703 
   6   2.0000      -0.658079       -17.9072 
   7   2.0000      -0.649689       -17.6789 
   8   2.0000      -0.640554       -17.4304 
   9   2.0000      -0.549804       -14.9609 
  10   2.0000      -0.527008       -14.3406 
  11   2.0000      -0.480651       -13.0792 
  12   2.0000      -0.424332       -11.5467 
  13   0.0000       0.030374         0.8265 
  14   0.0000       0.040518         1.1026 
  15   0.0000       0.045542         1.2393 
  16   0.0000       0.047366         1.2889 
  17   0.0000       0.062640         1.7045 
  18   0.0000       0.064708         1.7608 
  19   0.0000       0.089418         2.4332 
  20   0.0000       0.118857         3.2343 
  21   0.0000       0.122873         3.3435 
  22   0.0000       0.128451         3.4953 
  23   0.0000       0.140107         3.8125 
  24   0.0000       0.143762         3.9120 
  25   0.0000       0.149122         4.0578 
  26   0.0000       0.173851         4.7307 
  27   0.0000       0.174973         4.7613 
  28   0.0000       0.201356         5.4792 
  29   0.0000       0.226948         6.1756 
  30   0.0000       0.228650         6.2219 
  31   0.0000       0.230310         6.2671 
  32   0.0000       0.243431         6.6241 
  33   0.0000       0.248918         6.7734 
  34   0.0000       0.300600         8.1798 
  35   0.0000       0.303832         8.2677 
  36   0.0000       0.314711         8.5637 
  37   0.0000       0.317087         8.6284 
  38   0.0000       0.318754         8.6737 
  39   0.0000       0.327317         8.9067 
  40   0.0000       0.339612         9.2413 
  41   0.0000       0.344624         9.3777 
  42   0.0000       0.362573         9.8661 
  43   0.0000       0.367935        10.0120 
  44   0.0000       0.368127        10.0172 
  45   0.0000       0.373668        10.1680 
  46   0.0000       0.382003        10.3948 
  47   0.0000       0.406639        11.0652 
  48   0.0000       0.408946        11.1280 
  49   0.0000       0.426064        11.5938 
  50   0.0000       0.435844        11.8599 
  51   0.0000       0.438290        11.9265 
  52   0.0000       0.449272        12.2253 
  53   0.0000       0.457544        12.4504 
  54   0.0000       0.458015        12.4632 
  55   0.0000       0.477079        12.9820 
  56   0.0000       0.477621        12.9967 
  57   0.0000       0.483207        13.1487 
  58   0.0000       0.490097        13.3362 
  59   0.0000       0.494961        13.4686 
  60   0.0000       0.504870        13.7382 
  61   0.0000       0.537403        14.6235 
  62   0.0000       0.539442        14.6790 
  63   0.0000       0.568748        15.4764 
  64   0.0000       0.572851        15.5881 
  65   0.0000       0.607889        16.5415 
  66   0.0000       0.613254        16.6875 
  67   0.0000       0.675467        18.3804 
  68   0.0000       0.693431        18.8692 
  69   0.0000       0.696808        18.9611 
  70   0.0000       0.757855        20.6223 
  71   0.0000       0.782353        21.2889 
  72   0.0000       0.790677        21.5154 
  73   0.0000       0.800786        21.7905 
  74   0.0000       0.802974        21.8500 
  75   0.0000       0.811584        22.0843 
  76   0.0000       0.833360        22.6769 
  77   0.0000       0.840994        22.8846 
  78   0.0000       0.842171        22.9166 
  79   0.0000       0.855043        23.2669 
  80   0.0000       0.889413        24.2022 
  81   0.0000       0.890250        24.2249 
  82   0.0000       0.909303        24.7434 
  83   0.0000       0.921953        25.0876 
  84   0.0000       0.926760        25.2184 
  85   0.0000       0.937325        25.5059 
  86   0.0000       0.960380        26.1333 
  87   0.0000       0.961266        26.1574 
  88   0.0000       0.975805        26.5530 
  89   0.0000       0.992434        27.0055 
  90   0.0000       0.995205        27.0809 
  91   0.0000       1.018383        27.7116 
  92   0.0000       1.028174        27.9780 
  93   0.0000       1.053270        28.6609 
  94   0.0000       1.082267        29.4500 
  95   0.0000       1.086510        29.5654 
  96   0.0000       1.089972        29.6596 
  97   0.0000       1.094415        29.7806 
  98   0.0000       1.103655        30.0320 
  99   0.0000       1.122737        30.5512 
 100   0.0000       1.146609        31.2008 
 101   0.0000       1.155440        31.4411 
 102   0.0000       1.178496        32.0685 
 103   0.0000       1.183542        32.2058 
 104   0.0000       1.188638        32.3445 
 105   0.0000       1.196345        32.5542 
 106   0.0000       1.208022        32.8719 
 107   0.0000       1.222729        33.2722 
 108   0.0000       1.233978        33.5782 
 109   0.0000       1.235247        33.6128 
 110   0.0000       1.239478        33.7279 
 111   0.0000       1.291267        35.1372 
 112   0.0000       1.305622        35.5278 
 113   0.0000       1.319955        35.9178 
 114   0.0000       1.360383        37.0179 
 115   0.0000       1.403952        38.2035 
 116   0.0000       1.416747        38.5516 
 117   0.0000       1.433467        39.0066 
 118   0.0000       1.444781        39.3145 
 119   0.0000       1.477623        40.2082 
 120   0.0000       1.497132        40.7390 
 121   0.0000       1.513844        41.1938 
 122   0.0000       1.573022        42.8041 
 123   0.0000       1.584515        43.1169 
 124   0.0000       1.599314        43.5195 
 125   0.0000       1.605607        43.6908 
 126   0.0000       1.628340        44.3094 
 127   0.0000       1.630540        44.3692 
 128   0.0000       1.658400        45.1274 
 129   0.0000       1.676363        45.6162 
 130   0.0000       1.691890        46.0387 
 131   0.0000       1.698643        46.2224 
 132   0.0000       1.699780        46.2534 
 133   0.0000       1.724615        46.9292 
 134   0.0000       1.732288        47.1379 
 135   0.0000       1.733871        47.1810 
 136   0.0000       1.782512        48.5046 
 137   0.0000       1.796352        48.8812 
 138   0.0000       1.833026        49.8792 
 139   0.0000       1.863076        50.6969 
 140   0.0000       1.889921        51.4274 
 141   0.0000       1.901922        51.7539 
 142   0.0000       1.912979        52.0548 
 143   0.0000       1.941274        52.8248 
 144   0.0000       1.994861        54.2829 
 145   0.0000       2.001799        54.4717 
 146   0.0000       2.005252        54.5657 
 147   0.0000       2.039113        55.4871 
 148   0.0000       2.100673        57.1622 
 149   0.0000       2.102497        57.2119 
 150   0.0000       2.160811        58.7986 
 151   0.0000       2.170162        59.0531 
 152   0.0000       2.178813        59.2885 
 153   0.0000       2.190660        59.6109 
 154   0.0000       2.195248        59.7357 
 155   0.0000       2.247920        61.1690 
 156   0.0000       2.294022        62.4235 
 157   0.0000       2.312541        62.9274 
 158   0.0000       2.399875        65.3039 
 159   0.0000       2.420794        65.8732 
 160   0.0000       2.584040        70.3153 
 161   0.0000       2.601111        70.7798 
 162   0.0000       2.696617        73.3787 
 163   0.0000       2.722253        74.0763 
 164   0.0000       2.729540        74.2746 
 165   0.0000       2.746155        74.7267 
 166   0.0000       2.793419        76.0128 
 167   0.0000       2.864039        77.9345 
 168   0.0000       2.900082        78.9152 
 169   0.0000       3.011120        81.9367 
 170   0.0000       3.040906        82.7473 
 171   0.0000       3.062149        83.3253 
 172   0.0000       3.124628        85.0255 
 173   0.0000       3.150629        85.7330 
 174   0.0000       3.176561        86.4386 
 175   0.0000       3.278555        89.2140 
 176   0.0000       3.351756        91.2059 
 177   0.0000       3.392585        92.3169 
 178   0.0000       3.421638        93.1075 
 179   0.0000       3.439412        93.5912 
 180   0.0000       3.561866        96.9233 
 181   0.0000       3.581917        97.4689 
 182   0.0000       3.591737        97.7361 
 183   0.0000       3.614049        98.3433 
 184   0.0000       3.620860        98.5286 
 185   0.0000       3.695597       100.5623 
 186   0.0000       3.705301       100.8264 
 187   0.0000       3.722088       101.2832 
 188   0.0000       3.729787       101.4927 
 189   0.0000       3.767810       102.5273 
 190   0.0000       3.778802       102.8264 
 191   0.0000       3.811128       103.7061 
 192   0.0000       3.851203       104.7966 
 193   0.0000       3.896987       106.0424 
 194   0.0000       3.897901       106.0673 
 195   0.0000       3.953654       107.5844 
 196   0.0000       3.970351       108.0388 
 197   0.0000       3.998018       108.7916 
 198   0.0000       3.998299       108.7992 
 199   0.0000       4.040210       109.9397 
 200   0.0000       4.046377       110.1075 
 201   0.0000       4.073078       110.8341 
 202   0.0000       4.126613       112.2908 
 203   0.0000       4.164594       113.3244 
 204   0.0000       4.166740       113.3828 
 205   0.0000       4.180425       113.7552 
 206   0.0000       4.193121       114.1006 
 207   0.0000       4.226458       115.0078 
 208   0.0000       4.257602       115.8552 
 209   0.0000       4.268520       116.1523 
 210   0.0000       4.327434       117.7555 
 211   0.0000       4.333149       117.9110 
 212   0.0000       4.343122       118.1824 
 213   0.0000       4.441997       120.8729 
 214   0.0000       4.536638       123.4482 
 215   0.0000       4.595672       125.0546 
 216   0.0000       4.600770       125.1933 
 217   0.0000       4.617145       125.6389 
 218   0.0000       4.622415       125.7823 
 219   0.0000       4.647233       126.4576 
 220   0.0000       4.721067       128.4668 
 221   0.0000       4.742359       129.0462 
 222   0.0000       4.758062       129.4735 
 223   0.0000       4.785610       130.2231 
 224   0.0000       4.804419       130.7349 
 225   0.0000       4.854264       132.0912 
 226   0.0000       4.858636       132.2102 
 227   0.0000       4.935173       134.2929 
 228   0.0000       4.936073       134.3174 
 229   0.0000       5.009473       136.3147 
 230   0.0000       5.021184       136.6333 
 231   0.0000       5.025013       136.7375 
 232   0.0000       5.037009       137.0640 
 233   0.0000       5.146639       140.0472 
 234   0.0000       5.198930       141.4701 
 235   0.0000       5.234450       142.4366 
 236   0.0000       5.256640       143.0405 
 237   0.0000       5.344541       145.4324 
 238   0.0000       5.361745       145.9005 
 239   0.0000       5.373500       146.2204 
 240   0.0000       5.485490       149.2678 
 241   0.0000       5.511330       149.9709 
 242   0.0000       5.589566       152.0998 
 243   0.0000       5.600467       152.3965 
 244   0.0000       5.613690       152.7563 
 245   0.0000       5.664062       154.1270 
 246   0.0000       5.675342       154.4339 
 247   0.0000       5.703544       155.2013 
 248   0.0000       5.711642       155.4217 
 249   0.0000       5.965352       162.3255 
 250   0.0000       6.076768       165.3573 
 251   0.0000       6.079378       165.4283 
 252   0.0000       6.083127       165.5303 
 253   0.0000       6.096389       165.8912 
 254   0.0000       6.138011       167.0238 
 255   0.0000       6.260854       170.3665 
 256   0.0000       6.606327       179.7673 
 257   0.0000       6.614822       179.9985 
 258   0.0000       6.655722       181.1114 
 259   0.0000       6.690067       182.0460 
 260   0.0000       6.769076       184.1959 
 261   0.0000       6.966209       189.5602 
 262   0.0000       6.996741       190.3910 
 263   0.0000       7.181170       195.4096 
 264   0.0000       7.212524       196.2628 
 265   0.0000       7.388890       201.0619 
 266   0.0000       7.416535       201.8142 
 267   0.0000       7.655316       208.3117 
 268   0.0000       7.658920       208.4098 
 269   0.0000       7.703778       209.6305 
 270   0.0000       7.907696       215.1794 
 271   0.0000       8.302540       225.9236 
 272   0.0000       8.361562       227.5297 
 273   0.0000      15.006305       408.3423 
 274   0.0000      17.689629       481.3593 
 275   0.0000      17.755585       483.1540 

                    ********************************
                    * MULLIKEN POPULATION ANALYSIS *
                    ********************************

-----------------------
MULLIKEN ATOMIC CHARGES
-----------------------
   0 C :   -0.740884
   1 O :   -0.514376
   2 C :   -0.741043
   3 H :    0.323248
   4 H :    0.351906
   5 H :    0.322918
   6 H :    0.323063
   7 H :    0.352073
   8 H :    0.323095
Sum of atomic charges:    0.0000000

--------------------------------
MULLIKEN REDUCED ORBITAL CHARGES
--------------------------------
  0 C s       :     3.279694  s :     3.279694
      pz      :     1.257720  p :     3.189225
      px      :     0.707693
      py      :     1.223813
      dz2     :     0.041396  d :     0.246555
      dxz     :     0.061383
      dyz     :     0.042560
      dx2y2   :     0.031746
      dxy     :     0.069471
      f0      :     0.003215  f :     0.025410
      f+1     :     0.002275
      f-1     :     0.003358
      f+2     :     0.005211
      f-2     :     0.001312
      f+3     :     0.003178
      f-3     :     0.006859
  1 O s       :     3.838539  s :     3.838539
      pz      :     1.534481  p :     4.627788
      px      :     1.307602
      py      :     1.785706
      dz2     :     0.009792  d :     0.043995
      dxz     :     0.010127
      dyz     :     0.006904
      dx2y2   :     0.010994
      dxy     :     0.006178
      f0      :     0.000566  f :     0.004053
      f+1     :     0.000542
      f-1     :     0.000866
      f+2     :     0.000635
      f-2     :     0.000259
      f+3     :     0.000683
      f-3     :     0.000500
  2 C s       :     3.279823  s :     3.279823
      pz      :     0.876754  p :     3.189213
      px      :     1.215409
      py      :     1.097050
      dz2     :     0.085561  d :     0.246588
      dxz     :     0.023296
      dyz     :     0.038965
      dx2y2   :     0.088191
      dxy     :     0.010576
      f0      :     0.002787  f :     0.025419
      f+1     :     0.006669
      f-1     :     0.004541
      f+2     :     0.002936
      f-2     :     0.003936
      f+3     :     0.003714
      f-3     :     0.000836
  3 H s       :     0.632577  s :     0.632577
      pz      :     0.009002  p :     0.041626
      px      :     0.009516
      py      :     0.023108
      dz2     :    -0.000825  d :     0.002549
      dxz     :     0.000704
      dyz     :     0.002929
      dx2y2   :     0.000379
      dxy     :    -0.000638
  4 H s       :     0.592836  s :     0.592836
      pz      :     0.029240  p :     0.054579
      px      :     0.007275
      py      :     0.018064
      dz2     :     0.001342  d :     0.000679
      dxz     :    -0.000397
      dyz     :     0.000081
      dx2y2   :    -0.000314
      dxy     :    -0.000033
  5 H s       :     0.632939  s :     0.632939
      pz      :     0.019995  p :     0.041608
      px      :     0.009525
      py      :     0.012088
      dz2     :     0.001850  d :     0.002535
      dxz     :    -0.000592
      dyz     :     0.000447
      dx2y2   :     0.000172
      dxy     :     0.000658
  6 H s       :     0.632712  s :     0.632712
      pz      :     0.016488  p :     0.041670
      px      :     0.011448
      py      :     0.013734
      dz2     :    -0.001249  d :     0.002555
      dxz     :     0.001302
      dyz     :     0.000803
      dx2y2   :     0.001507
      dxy     :     0.000192
  7 H s       :     0.592630  s :     0.592630
      pz      :     0.008987  p :     0.054606
      px      :     0.034227
      py      :     0.011392
      dz2     :     0.000338  d :     0.000691
      dxz     :    -0.000102
      dyz     :     0.000004
      dx2y2   :    -0.001112
      dxy     :     0.001564
  8 H s       :     0.632660  s :     0.632660
      pz      :     0.009715  p :     0.041697
      px      :     0.011407
      py      :     0.020575
      dz2     :     0.000483  d :     0.002549
      dxz     :    -0.000074
      dyz     :     0.000687
      dx2y2   :    -0.000119
      dxy     :     0.001572


                     *******************************
                     * LOEWDIN POPULATION ANALYSIS *
                     *******************************

----------------------
LOEWDIN ATOMIC CHARGES
----------------------
   0 C :    0.296056
   1 O :    0.516132
   2 C :    0.296598
   3 H :   -0.182128
   4 H :   -0.190398
   5 H :   -0.181838
   6 H :   -0.182079
   7 H :   -0.190154
   8 H :   -0.182189

-------------------------------
LOEWDIN REDUCED ORBITAL CHARGES
-------------------------------
  0 C s       :     2.465524  s :     2.465524
      pz      :     0.793773  p :     2.198495
      px      :     0.617079
      py      :     0.787642
      dz2     :     0.106898  d :     0.712286
      dxz     :     0.175301
      dyz     :     0.076815
      dx2y2   :     0.159855
      dxy     :     0.193417
      f0      :     0.036853  f :     0.327639
      f+1     :     0.041758
      f-1     :     0.020243
      f+2     :     0.060858
      f-2     :     0.013252
      f+3     :     0.061288
      f-3     :     0.093386
  1 O s       :     3.009288  s :     3.009288
      pz      :     1.312345  p :     3.914984
      px      :     1.193445
      py      :     1.409195
      dz2     :     0.089597  d :     0.440233
      dxz     :     0.120100
      dyz     :     0.051310
      dx2y2   :     0.091475
      dxy     :     0.087752
      f0      :     0.027247  f :     0.119362
      f+1     :     0.011773
      f-1     :     0.009614
      f+2     :     0.027903
      f-2     :     0.008509
      f+3     :     0.009817
      f-3     :     0.024500
  2 C s       :     2.465590  s :     2.465590
      pz      :     0.677324  p :     2.198441
      px      :     0.772212
      py      :     0.748905
      dz2     :     0.226423  d :     0.711884
      dxz     :     0.096591
      dyz     :     0.153750
      dx2y2   :     0.176592
      dxy     :     0.058528
      f0      :     0.065200  f :     0.327487
      f+1     :     0.050327
      f-1     :     0.067302
      f+2     :     0.056823
      f-2     :     0.046859
      f+3     :     0.024986
      f-3     :     0.015990
  3 H s       :     0.661113  s :     0.661113
      pz      :     0.086956  p :     0.300029
      px      :     0.064776
      py      :     0.148297
      dz2     :     0.015994  d :     0.220985
      dxz     :     0.009769
      dyz     :     0.083882
      dx2y2   :     0.067167
      dxy     :     0.044173
  4 H s       :     0.666682  s :     0.666682
      pz      :     0.132838  p :     0.298933
      px      :     0.063240
      py      :     0.102855
      dz2     :     0.076991  d :     0.224783
      dxz     :     0.040567
      dyz     :     0.049861
      dx2y2   :     0.038660
      dxy     :     0.018705
  5 H s       :     0.661009  s :     0.661009
      pz      :     0.134501  p :     0.299876
      px      :     0.064732
      py      :     0.100643
      dz2     :     0.076593  d :     0.220953
      dxz     :     0.035817
      dyz     :     0.048179
      dx2y2   :     0.042214
      dxy     :     0.018150
  6 H s       :     0.661063  s :     0.661063
      pz      :     0.113554  p :     0.300006
      px      :     0.092696
      py      :     0.093756
      dz2     :     0.059384  d :     0.221009
      dxz     :     0.052879
      dyz     :     0.051832
      dx2y2   :     0.043534
      dxy     :     0.013380
  7 H s       :     0.666717  s :     0.666717
      pz      :     0.069845  p :     0.298750
      px      :     0.147078
      py      :     0.081827
      dz2     :     0.021633  d :     0.224688
      dxz     :     0.074927
      dyz     :     0.006465
      dx2y2   :     0.042933
      dxy     :     0.078730
  8 H s       :     0.661121  s :     0.661121
      pz      :     0.066084  p :     0.300054
      px      :     0.092659
      py      :     0.141311
      dz2     :     0.020614  d :     0.221013
      dxz     :     0.004674
      dyz     :     0.073623
      dx2y2   :     0.060445
      dxy     :     0.061658


                      *****************************
                      * MAYER POPULATION ANALYSIS *
                      *****************************

  NA   - Mulliken gross atomic population
  ZA   - Total nuclear charge
  QA   - Mulliken gross atomic charge
  VA   - Mayer's total valence
  BVA  - Mayer's bonded valence
  FA   - Mayer's free valence

  ATOM       NA         ZA         QA         VA         BVA        FA
  0 C      6.7409     6.0000    -0.7409     3.6429     3.6429     0.0000
  1 O      8.5144     8.0000    -0.5144     1.8541     1.8541     0.0000
  2 C      6.7410     6.0000    -0.7410     3.6429     3.6429     0.0000
  3 H      0.6768     1.0000     0.3232     0.9776     0.9776    -0.0000
  4 H      0.6481     1.0000     0.3519     1.0147     1.0147     0.0000
  5 H      0.6771     1.0000     0.3229     0.9778     0.9778     0.0000
  6 H      0.6769     1.0000     0.3231     0.9779     0.9779     0.0000
  7 H      0.6479     1.0000     0.3521     1.0144     1.0144    -0.0000
  8 H      0.6769     1.0000     0.3231     0.9780     0.9780    -0.0000

  Mayer bond orders larger than 0.100000
B(  0-C ,  1-O ) :   0.9107 B(  0-C ,  3-H ) :   0.8840 B(  0-C ,  4-H ) :   0.9143 
B(  0-C ,  5-H ) :   0.8842 B(  1-O ,  2-C ) :   0.9107 B(  2-C ,  6-H ) :   0.8842 
B(  2-C ,  7-H ) :   0.9140 B(  2-C ,  8-H ) :   0.8843 

-------
TIMINGS
-------

Total SCF time: 0 days 0 hours 0 min 17 sec 

Total time                  ....      17.810 sec
Sum of individual times     ....      17.464 sec  ( 98.1%)

Fock matrix formation       ....      16.424 sec  ( 92.2%)
Diagonalization             ....       0.175 sec  (  1.0%)
Density matrix formation    ....       0.179 sec  (  1.0%)
Population analysis         ....       0.045 sec  (  0.3%)
Initial guess               ....       0.164 sec  (  0.9%)
Orbital Transformation      ....       0.000 sec  (  0.0%)
Orbital Orthonormalization  ....       0.000 sec  (  0.0%)
DIIS solution               ....       0.096 sec  (  0.5%)
SOSCF solution              ....       0.282 sec  (  1.6%)


           ************************************************************
           *        Program running with 16 parallel MPI-processes    *
           *              working on a common directory               *
           ************************************************************

------------------------------------------------------------------------------
                                ORCA  MP2 
------------------------------------------------------------------------------

Freezing NCore=6 chemical core electrons
MP2 will be done in the AO integral direct mode
The Q1-step will be done using symmetric double matrices
Dimension of the basis                    ...  276
Memory devoted for MP2                    ... 1000 MB   
Memory needed for all in one shot         ...   81 MB
Number of MOs that can be treated together...   11      
MP2 density construction                  ... relaxed
The MP2 gradient is requested => amplitudes will be stored on disk
Total number of MOs              ...   10
Number of MOs treated per batch  ...    1 
Number of batches necessary      ...    1 
OPERATORS   0/  0 PASS   0
-----------------------------------------------
 MP2 CORRELATION ENERGY   :     -0.608982453 Eh
-----------------------------------------------


---------------------
MP2 DENSITY FORMATION
---------------------

Completing the external part of the density      ... done
Storing the unrelaxed density                    ... done

Calculating G(D)                                 ... done
Completing the Lagrangian                        ... done
Solving the Z-vector equations                   ... 

------------------------------------------------------------------------------
                           ORCA CP-SCF CALCULATION
------------------------------------------------------------------------------

Input orbitals are from        ... dimethyl_ether_MP2_aug-cc-pVTZ_OPT.gbw
Input Perturbation             ... dimethyl_ether_MP2_aug-cc-pVTZ_OPT.pin.tmp
Wavefunction output            ... dimethyl_ether_MP2_aug-cc-pVTZ_OPT.pout.tmp
Perturbation mode              ... Real perturbation (singlet)
Solver                         ... POPLE
Max. number of iterations      ... 128
Convergence tolerance          ... 1.000e-08
Integral handling              ... Direct
Number of perturbations        ... 1
Number of operators            ... 1
Orbital ranges used for CP-SCF:
 Operator 0:  Orbitals   0... 12  to  13...275
Variables per vector in CP-SCF ... 3419
Number of vectors sought       ... 1
     CP-SCF ITERATION   0: 
     CP-SCF ITERATION   1:      0.000185263288
     CP-SCF ITERATION   2:      0.000037107925
     CP-SCF ITERATION   3:      0.000002346370
     CP-SCF ITERATION   4:      0.000000113045
     CP-SCF ITERATION   5:      0.000000004303
                                                 ... done
Finalizing the relaxed density                   ... done
Transforming P to the AO basis                   ... done
Storing the relaxed density                      ... done

------------------------------------
ENERGY WEIGHTED DENSITY FINALIZATION
------------------------------------

Gathering the parts of the W-matrix              ...                                                      done
Forming the Z-density                            ... done
Transforming Z to the AO basis                   ... done
Calculating G(Z)                                 ... done
Finalizing the W-matrix                          ...                                                      done
Transforming W to the AO basis and storing       ... done

                *********************************************
                * UNRELAXED MP2 DENSITY POPULATION ANALYSIS *
                *********************************************

------------------------------------------------------------------------------
                           ORCA POPULATION ANALYSIS
------------------------------------------------------------------------------
Input electron density              ... dimethyl_ether_MP2_aug-cc-pVTZ_OPT.pmp2ur
BaseName (.gbw .S,...)              ... dimethyl_ether_MP2_aug-cc-pVTZ_OPT

                    ********************************
                    * MULLIKEN POPULATION ANALYSIS *
                    ********************************

-----------------------
MULLIKEN ATOMIC CHARGES
-----------------------
   0 C :   -0.735974
   1 O :   -0.499965
   2 C :   -0.736131
   3 H :    0.319415
   4 H :    0.347450
   5 H :    0.319093
   6 H :    0.319235
   7 H :    0.347614
   8 H :    0.319263
Sum of atomic charges:    0.0000000

--------------------------------
MULLIKEN REDUCED ORBITAL CHARGES
--------------------------------
  0 C s       :     3.276103  s :     3.276103
      pz      :     1.246732  p :     3.168906
      px      :     0.709195
      py      :     1.212979
      dz2     :     0.044599  d :     0.262826
      dxz     :     0.065069
      dyz     :     0.046406
      dx2y2   :     0.033377
      dxy     :     0.073375
      f0      :     0.003647  f :     0.028140
      f+1     :     0.002681
      f-1     :     0.003547
      f+2     :     0.005593
      f-2     :     0.002035
      f+3     :     0.003326
      f-3     :     0.007311
  1 O s       :     3.835432  s :     3.835432
      pz      :     1.518363  p :     4.580683
      px      :     1.294059
      py      :     1.768262
      dz2     :     0.015938  d :     0.075230
      dxz     :     0.016365
      dyz     :     0.013156
      dx2y2   :     0.017008
      dxy     :     0.012763
      f0      :     0.001200  f :     0.008620
      f+1     :     0.001275
      f-1     :     0.001491
      f+2     :     0.001252
      f-2     :     0.000940
      f+3     :     0.001337
      f-3     :     0.001124
  2 C s       :     3.276224  s :     3.276224
      pz      :     0.873803  p :     3.168903
      px      :     1.206207
      py      :     1.088892
      dz2     :     0.087858  d :     0.262856
      dxz     :     0.027327
      dyz     :     0.041740
      dx2y2   :     0.090510
      dxy     :     0.015421
      f0      :     0.003343  f :     0.028149
      f+1     :     0.006985
      f-1     :     0.004745
      f+2     :     0.003370
      f-2     :     0.004331
      f+3     :     0.004050
      f-3     :     0.001326
  3 H s       :     0.634010  s :     0.634010
      pz      :     0.010367  p :     0.043562
      px      :     0.011437
      py      :     0.021758
      dz2     :    -0.000728  d :     0.003013
      dxz     :     0.000839
      dyz     :     0.002923
      dx2y2   :     0.000438
      dxy     :    -0.000460
  4 H s       :     0.595771  s :     0.595771
      pz      :     0.027996  p :     0.055635
      px      :     0.009122
      py      :     0.018516
      dz2     :     0.001373  d :     0.001144
      dxz     :    -0.000219
      dyz     :     0.000159
      dx2y2   :    -0.000248
      dxy     :     0.000079
  5 H s       :     0.634367  s :     0.634367
      pz      :     0.019359  p :     0.043542
      px      :     0.011445
      py      :     0.012738
      dz2     :     0.001867  d :     0.002998
      dxz     :    -0.000453
      dyz     :     0.000512
      dx2y2   :     0.000240
      dxy     :     0.000833
  6 H s       :     0.634144  s :     0.634144
      pz      :     0.016500  p :     0.043602
      px      :     0.012604
      py      :     0.014498
      dz2     :    -0.001033  d :     0.003019
      dxz     :     0.001354
      dyz     :     0.000856
      dx2y2   :     0.001562
      dxy     :     0.000279
  7 H s       :     0.595569  s :     0.595569
      pz      :     0.010728  p :     0.055661
      px      :     0.032098
      py      :     0.012836
      dz2     :     0.000388  d :     0.001156
      dxz     :     0.000068
      dyz     :     0.000066
      dx2y2   :    -0.001004
      dxy     :     0.001639
  8 H s       :     0.634094  s :     0.634094
      pz      :     0.011574  p :     0.043631
      px      :     0.012566
      py      :     0.019490
      dz2     :     0.000577  d :     0.003013
      dxz     :     0.000007
      dyz     :     0.000830
      dx2y2   :    -0.000032
      dxy     :     0.001630


                     *******************************
                     * LOEWDIN POPULATION ANALYSIS *
                     *******************************

----------------------
LOEWDIN ATOMIC CHARGES
----------------------
   0 C :    0.291520
   1 O :    0.520341
   2 C :    0.292053
   3 H :   -0.181509
   4 H :   -0.189196
   5 H :   -0.181223
   6 H :   -0.181461
   7 H :   -0.188957
   8 H :   -0.181569

-------------------------------
LOEWDIN REDUCED ORBITAL CHARGES
-------------------------------
  0 C s       :     2.464157  s :     2.464157
      pz      :     0.788728  p :     2.187791
      px      :     0.616258
      py      :     0.782805
      dz2     :     0.110189  d :     0.725626
      dxz     :     0.177182
      dyz     :     0.080543
      dx2y2   :     0.162168
      dxy     :     0.195544
      f0      :     0.037058  f :     0.330905
      f+1     :     0.042757
      f-1     :     0.021190
      f+2     :     0.060600
      f-2     :     0.014356
      f+3     :     0.062253
      f-3     :     0.092692
  1 O s       :     3.007533  s :     3.007533
      pz      :     1.300279  p :     3.879392
      px      :     1.183331
      py      :     1.395782
      dz2     :     0.095062  d :     0.467462
      dxz     :     0.124747
      dyz     :     0.057475
      dx2y2   :     0.097362
      dxy     :     0.092816
      f0      :     0.027791  f :     0.125272
      f+1     :     0.012962
      f-1     :     0.010542
      f+2     :     0.028499
      f-2     :     0.009431
      f+3     :     0.010937
      f-3     :     0.025110
  2 C s       :     2.464223  s :     2.464223
      pz      :     0.675019  p :     2.187741
      px      :     0.767743
      py      :     0.744980
      dz2     :     0.228409  d :     0.725229
      dxz     :     0.099295
      dyz     :     0.156344
      dx2y2   :     0.179163
      dxy     :     0.062019
      f0      :     0.065179  f :     0.330753
      f+1     :     0.050931
      f-1     :     0.067993
      f+2     :     0.056754
      f-2     :     0.047200
      f+3     :     0.025914
      f-3     :     0.016782
  3 H s       :     0.655477  s :     0.655477
      pz      :     0.087798  p :     0.305233
      px      :     0.066907
      py      :     0.150528
      dz2     :     0.016330  d :     0.220799
      dxz     :     0.010109
      dyz     :     0.082887
      dx2y2   :     0.066989
      dxy     :     0.044483
  4 H s       :     0.661056  s :     0.661056
      pz      :     0.134695  p :     0.303648
      px      :     0.064944
      py      :     0.104009
      dz2     :     0.076483  d :     0.224492
      dxz     :     0.040656
      dyz     :     0.049945
      dx2y2   :     0.038426
      dxy     :     0.018982
  5 H s       :     0.655374  s :     0.655374
      pz      :     0.136376  p :     0.305083
      px      :     0.066862
      py      :     0.101845
      dz2     :     0.075985  d :     0.220766
      dxz     :     0.036115
      dyz     :     0.048238
      dx2y2   :     0.041928
      dxy     :     0.018500
  6 H s       :     0.655428  s :     0.655428
      pz      :     0.116514  p :     0.305211
      px      :     0.093732
      py      :     0.094965
      dz2     :     0.059350  d :     0.220822
      dxz     :     0.052717
      dyz     :     0.051961
      dx2y2   :     0.043157
      dxy     :     0.013637
  7 H s       :     0.661091  s :     0.661091
      pz      :     0.071052  p :     0.303467
      px      :     0.149649
      py      :     0.082766
      dz2     :     0.021971  d :     0.224398
      dxz     :     0.074297
      dyz     :     0.006722
      dx2y2   :     0.043428
      dxy     :     0.077979
  8 H s       :     0.655485  s :     0.655485
      pz      :     0.067485  p :     0.305258
      px      :     0.093693
      py      :     0.144080
      dz2     :     0.020991  d :     0.220826
      dxz     :     0.005004
      dyz     :     0.072979
      dx2y2   :     0.060433
      dxy     :     0.061419


                      *****************************
                      * MAYER POPULATION ANALYSIS *
                      *****************************

  NA   - Mulliken gross atomic population
  ZA   - Total nuclear charge
  QA   - Mulliken gross atomic charge
  VA   - Mayer's total valence
  BVA  - Mayer's bonded valence
  FA   - Mayer's free valence

  ATOM       NA         ZA         QA         VA         BVA        FA
  0 C      6.7360     6.0000    -0.7360     3.7529     3.4590     0.2939
  1 O      8.5000     8.0000    -0.5000     2.1562     1.7217     0.4345
  2 C      6.7361     6.0000    -0.7361     3.7529     3.4590     0.2939
  3 H      0.6806     1.0000     0.3194     0.9829     0.9326     0.0503
  4 H      0.6525     1.0000     0.3475     1.0169     0.9691     0.0478
  5 H      0.6809     1.0000     0.3191     0.9830     0.9327     0.0503
  6 H      0.6808     1.0000     0.3192     0.9831     0.9328     0.0503
  7 H      0.6524     1.0000     0.3476     1.0165     0.9688     0.0478
  8 H      0.6807     1.0000     0.3193     0.9833     0.9330     0.0503

  Mayer bond orders larger than 0.100000
B(  0-C ,  1-O ) :   0.8495 B(  0-C ,  3-H ) :   0.8442 B(  0-C ,  4-H ) :   0.8740 
B(  0-C ,  5-H ) :   0.8444 B(  1-O ,  2-C ) :   0.8495 B(  2-C ,  6-H ) :   0.8444 
B(  2-C ,  7-H ) :   0.8737 B(  2-C ,  8-H ) :   0.8445 


                *******************************************
                * RELAXED MP2 DENSITY POPULATION ANALYSIS *
                *******************************************

------------------------------------------------------------------------------
                           ORCA POPULATION ANALYSIS
------------------------------------------------------------------------------
Input electron density              ... dimethyl_ether_MP2_aug-cc-pVTZ_OPT.pmp2re
BaseName (.gbw .S,...)              ... dimethyl_ether_MP2_aug-cc-pVTZ_OPT

                    ********************************
                    * MULLIKEN POPULATION ANALYSIS *
                    ********************************

-----------------------
MULLIKEN ATOMIC CHARGES
-----------------------
   0 C :   -0.823252
   1 O :   -0.416685
   2 C :   -0.823331
   3 H :    0.335469
   4 H :    0.360974
   5 H :    0.335152
   6 H :    0.335277
   7 H :    0.361101
   8 H :    0.335295
Sum of atomic charges:    0.0000000

--------------------------------
MULLIKEN REDUCED ORBITAL CHARGES
--------------------------------
  0 C s       :     3.317066  s :     3.317066
      pz      :     1.265022  p :     3.222046
      px      :     0.723142
      py      :     1.233882
      dz2     :     0.039458  d :     0.257642
      dxz     :     0.068062
      dyz     :     0.042316
      dx2y2   :     0.028538
      dxy     :     0.079268
      f0      :     0.003632  f :     0.026498
      f+1     :     0.002545
      f-1     :     0.003149
      f+2     :     0.005292
      f-2     :     0.001965
      f+3     :     0.002941
      f-3     :     0.006973
  1 O s       :     3.825574  s :     3.825574
      pz      :     1.493011  p :     4.503697
      px      :     1.276623
      py      :     1.734063
      dz2     :     0.016589  d :     0.078497
      dxz     :     0.017571
      dyz     :     0.013181
      dx2y2   :     0.016718
      dxy     :     0.014438
      f0      :     0.001312  f :     0.008918
      f+1     :     0.001257
      f-1     :     0.001467
      f+2     :     0.001382
      f-2     :     0.000959
      f+3     :     0.001300
      f-3     :     0.001241
  2 C s       :     3.317189  s :     3.317189
      pz      :     0.891177  p :     3.221999
      px      :     1.221360
      py      :     1.109461
      dz2     :     0.088786  d :     0.257634
      dxz     :     0.025471
      dyz     :     0.042134
      dx2y2   :     0.086066
      dxy     :     0.015177
      f0      :     0.003271  f :     0.026509
      f+1     :     0.006601
      f-1     :     0.004307
      f+2     :     0.003240
      f-2     :     0.003857
      f+3     :     0.003862
      f-3     :     0.001371
  3 H s       :     0.619083  s :     0.619083
      pz      :     0.012312  p :     0.042925
      px      :     0.009430
      py      :     0.021183
      dz2     :    -0.000703  d :     0.002523
      dxz     :     0.000859
      dyz     :     0.002845
      dx2y2   :     0.000095
      dxy     :    -0.000572
  4 H s       :     0.584175  s :     0.584175
      pz      :     0.027746  p :     0.054304
      px      :     0.007423
      py      :     0.019135
      dz2     :     0.001124  d :     0.000547
      dxz     :    -0.000327
      dyz     :     0.000060
      dx2y2   :    -0.000397
      dxy     :     0.000086
  5 H s       :     0.619429  s :     0.619429
      pz      :     0.019194  p :     0.042907
      px      :     0.009447
      py      :     0.014266
      dz2     :     0.001654  d :     0.002512
      dxz     :    -0.000480
      dyz     :     0.000464
      dx2y2   :     0.000108
      dxy     :     0.000766
  6 H s       :     0.619234  s :     0.619234
      pz      :     0.014414  p :     0.042960
      px      :     0.013523
      py      :     0.015023
      dz2     :    -0.001262  d :     0.002530
      dxz     :     0.001246
      dyz     :     0.000743
      dx2y2   :     0.001538
      dxy     :     0.000265
  7 H s       :     0.584029  s :     0.584029
      pz      :     0.010431  p :     0.054311
      px      :     0.030450
      py      :     0.013430
      dz2     :     0.000387  d :     0.000559
      dxz     :    -0.000291
      dyz     :     0.000094
      dx2y2   :    -0.001033
      dxy     :     0.001401
  8 H s       :     0.619196  s :     0.619196
      pz      :     0.011043  p :     0.042986
      px      :     0.013491
      py      :     0.018452
      dz2     :     0.000544  d :     0.002523
      dxz     :     0.000060
      dyz     :     0.000440
      dx2y2   :     0.000024
      dxy     :     0.001455


                     *******************************
                     * LOEWDIN POPULATION ANALYSIS *
                     *******************************

----------------------
LOEWDIN ATOMIC CHARGES
----------------------
   0 C :    0.278192
   1 O :    0.543033
   2 C :    0.278713
   3 H :   -0.181139
   4 H :   -0.187944
   5 H :   -0.180850
   6 H :   -0.181094
   7 H :   -0.187709
   8 H :   -0.181202

-------------------------------
LOEWDIN REDUCED ORBITAL CHARGES
-------------------------------
  0 C s       :     2.469575  s :     2.469575
      pz      :     0.798114  p :     2.210213
      px      :     0.619071
      py      :     0.793028
      dz2     :     0.106965  d :     0.719420
      dxz     :     0.178507
      dyz     :     0.076950
      dx2y2   :     0.157596
      dxy     :     0.199402
      f0      :     0.036033  f :     0.322600
      f+1     :     0.042311
      f-1     :     0.020546
      f+2     :     0.058709
      f-2     :     0.014010
      f+3     :     0.061578
      f-3     :     0.089413
  1 O s       :     3.013280  s :     3.013280
      pz      :     1.287396  p :     3.843076
      px      :     1.179923
      py      :     1.375758
      dz2     :     0.096030  d :     0.473697
      dxz     :     0.126914
      dyz     :     0.057809
      dx2y2   :     0.097705
      dxy     :     0.095238
      f0      :     0.028105  f :     0.126914
      f+1     :     0.013227
      f-1     :     0.010803
      f+2     :     0.028795
      f-2     :     0.009507
      f+3     :     0.011102
      f-3     :     0.025375
  2 C s       :     2.469644  s :     2.469644
      pz      :     0.680314  p :     2.210164
      px      :     0.776016
      py      :     0.753834
      dz2     :     0.229967  d :     0.719020
      dxz     :     0.097140
      dyz     :     0.155456
      dx2y2   :     0.175949
      dxy     :     0.060507
      f0      :     0.062293  f :     0.322460
      f+1     :     0.050110
      f-1     :     0.066860
      f+2     :     0.054942
      f-2     :     0.046548
      f+3     :     0.025429
      f-3     :     0.016279
  3 H s       :     0.648444  s :     0.648444
      pz      :     0.090199  p :     0.311691
      px      :     0.069912
      py      :     0.151581
      dz2     :     0.016244  d :     0.221003
      dxz     :     0.010826
      dyz     :     0.082261
      dx2y2   :     0.066789
      dxy     :     0.044882
  4 H s       :     0.654328  s :     0.654328
      pz      :     0.135571  p :     0.308594
      px      :     0.066983
      py      :     0.106040
      dz2     :     0.076273  d :     0.225022
      dxz     :     0.041032
      dyz     :     0.049994
      dx2y2   :     0.038005
      dxy     :     0.019718
  5 H s       :     0.648334  s :     0.648334
      pz      :     0.137949  p :     0.311546
      px      :     0.069868
      py      :     0.103729
      dz2     :     0.075633  d :     0.220971
      dxz     :     0.036550
      dyz     :     0.048231
      dx2y2   :     0.041378
      dxy     :     0.019179
  6 H s       :     0.648395  s :     0.648395
      pz      :     0.119106  p :     0.311671
      px      :     0.095837
      py      :     0.096729
      dz2     :     0.059139  d :     0.221028
      dxz     :     0.053058
      dyz     :     0.052368
      dx2y2   :     0.042617
      dxy     :     0.013845
  7 H s       :     0.654366  s :     0.654366
      pz      :     0.073223  p :     0.308413
      px      :     0.149963
      py      :     0.085226
      dz2     :     0.022363  d :     0.224930
      dxz     :     0.074045
      dyz     :     0.006840
      dx2y2   :     0.043656
      dxy     :     0.078026
  8 H s       :     0.648455  s :     0.648455
      pz      :     0.070213  p :     0.311717
      px      :     0.095799
      py      :     0.145705
      dz2     :     0.021389  d :     0.221030
      dxz     :     0.005245
      dyz     :     0.072444
      dx2y2   :     0.060229
      dxy     :     0.061724


                      *****************************
                      * MAYER POPULATION ANALYSIS *
                      *****************************

  NA   - Mulliken gross atomic population
  ZA   - Total nuclear charge
  QA   - Mulliken gross atomic charge
  VA   - Mayer's total valence
  BVA  - Mayer's bonded valence
  FA   - Mayer's free valence

  ATOM       NA         ZA         QA         VA         BVA        FA
  0 C      6.8233     6.0000    -0.8233     3.7940     3.5032     0.2908
  1 O      8.4167     8.0000    -0.4167     2.2831     1.8589     0.4242
  2 C      6.8233     6.0000    -0.8233     3.7940     3.5032     0.2909
  3 H      0.6645     1.0000     0.3355     0.9622     0.9127     0.0495
  4 H      0.6390     1.0000     0.3610     0.9979     0.9504     0.0475
  5 H      0.6648     1.0000     0.3352     0.9624     0.9129     0.0495
  6 H      0.6647     1.0000     0.3353     0.9625     0.9130     0.0495
  7 H      0.6389     1.0000     0.3611     0.9976     0.9501     0.0475
  8 H      0.6647     1.0000     0.3353     0.9626     0.9131     0.0495

  Mayer bond orders larger than 0.100000
B(  0-C ,  1-O ) :   0.9248 B(  0-C ,  3-H ) :   0.8233 B(  0-C ,  4-H ) :   0.8626 
B(  0-C ,  5-H ) :   0.8235 B(  1-O ,  2-C ) :   0.9248 B(  2-C ,  6-H ) :   0.8236 
B(  2-C ,  7-H ) :   0.8623 B(  2-C ,  8-H ) :   0.8236 


----------------------------------
MP2 DERIVATIVE INTEGRAL GENERATION
----------------------------------


Input Wavefunction Amplitudes       ... dimethyl_ether_MP2_aug-cc-pVTZ_OPT.mp2tsaa.tmp
Input Correlated Electron Density   ... dimethyl_ether_MP2_aug-cc-pVTZ_OPT.pmp2re
Input Energy Weighted Density       ... dimethyl_ether_MP2_aug-cc-pVTZ_OPT.wmp2.tmp
Input SCF Electron Density          ... dimethyl_ether_MP2_aug-cc-pVTZ_OPT.scfp

One-Electron Terms    ...
                        ... One-Electron Terms done
Prescreening matrices              ... done

Batch handling in the gradient evaluation:
Memory available                      ... 1000.0 MB
Memory per occupied orbital in Q2     ...    5.8 MB
Memory per occupied orbital in Q3     ...    0.1 MB
Total memory requirement per |i>      ...    5.9 MB
Max. Number of orbitals possible      ...    169
Number of orbitals treated per batch  ...     10
Number of batches to be done          ...      1
Batch   0: i=    3 ...    12

---------------------------------------
MP2 TOTAL ENERGY:     -154.737692610 Eh
---------------------------------------

-----------------------------------
NORM OF THE MP2 GRADIENT:  0.008004
-----------------------------------

-------------------------   --------------------
FINAL SINGLE POINT ENERGY      -154.737692609727
-------------------------   --------------------

------------------------------------------------------------------------------
                         ORCA GEOMETRY RELAXATION STEP
------------------------------------------------------------------------------

Reading the OPT-File                    .... done
Getting information on internals        .... done
Copying old internal coords+grads       .... done
Making the new internal coordinates     .... (new redundants).... done
Validating the new internal coordinates .... (new redundants).... done
Calculating the B-matrix                .... done
Calculating the G,G- and P matrices     .... done
Transforming gradient to internals      .... done
Projecting the internal gradient        .... done
Number of atoms                         ....   9
Number of internal coordinates          ....  27
Current Energy                          ....  -154.737692610 Eh
Current gradient norm                   ....     0.008003567 Eh/bohr
Maximum allowed component of the step   ....  0.300
Current trust radius                    ....  0.300
Evaluating the initial hessian          ....  (Almloef) done
Projecting the Hessian                  .... done
Forming the augmented Hessian           .... done
Diagonalizing the augmented Hessian     .... done
Last element of RFO vector              ....  0.999658834
Lowest eigenvalues of augmented Hessian:
 -0.000257932  0.021440936  0.021501864  0.184297199  0.184381947
Length of the computed step             ....  0.026128176
The final length of the internal step   ....  0.026128176
Converting the step to cartesian space:
 Initial RMS(Int)=    0.0050283699
Transforming coordinates:
 Iter   0:  RMS(Cart)=    0.0165700170 RMS(Int)=    0.0050082749
 Iter   1:  RMS(Cart)=    0.0000860135 RMS(Int)=    0.0000727449
 Iter   2:  RMS(Cart)=    0.0000012200 RMS(Int)=    0.0000004902
 Iter   3:  RMS(Cart)=    0.0000000106 RMS(Int)=    0.0000000112
done
Storing new coordinates                 .... done

                                .--------------------.
          ----------------------|Geometry convergence|-------------------------
          Item                value                   Tolerance       Converged
          ---------------------------------------------------------------------
          RMS gradient        0.0019131589            0.0001000000      NO
          MAX gradient        0.0083076382            0.0003000000      NO
          RMS step            0.0050283699            0.0020000000      NO
          MAX step            0.0206248050            0.0040000000      NO
          ........................................................
          Max(Bonds)      0.0027      Max(Angles)    1.18
          Max(Dihed)        0.09      Max(Improp)    0.00
          ---------------------------------------------------------------------

The optimization has not yet converged - more geometry cycles are needed


    ---------------------------------------------------------------------------
                         Redundant Internal Coordinates
                            (Angstroem and degrees)

        Definition                    Value    dE/dq     Step     New-Value
    ----------------------------------------------------------------------------
     1. B(O   1,C   0)                1.4096  0.001027 -0.0010    1.4085   
     2. B(C   2,O   1)                1.4100  0.001197 -0.0012    1.4087   
     3. B(H   3,C   0)                1.0978  0.001562 -0.0024    1.0955   
     4. B(H   4,C   0)                1.0889  0.001636 -0.0024    1.0865   
     5. B(H   5,C   0)                1.0982  0.001772 -0.0027    1.0955   
     6. B(H   6,C   2)                1.0979  0.001644 -0.0025    1.0955   
     7. B(H   7,C   2)                1.0891  0.001791 -0.0026    1.0865   
     8. B(H   8,C   2)                1.0978  0.001557 -0.0024    1.0954   
     9. A(H   3,C   0,H   4)          108.87 -0.001020    0.20    109.07   
    10. A(O   1,C   0,H   3)          111.65  0.001188   -0.22    111.43   
    11. A(O   1,C   0,H   4)          107.51  0.000560   -0.09    107.42   
    12. A(H   3,C   0,H   5)          108.29 -0.000845    0.12    108.41   
    13. A(O   1,C   0,H   5)          111.59  0.001019   -0.19    111.40   
    14. A(H   4,C   0,H   5)          108.87 -0.000997    0.20    109.07   
    15. A(C   0,O   1,C   2)          112.67  0.008308   -1.18    111.48   
    16. A(H   7,C   2,H   8)          108.92 -0.000924    0.18    109.10   
    17. A(H   6,C   2,H   8)          108.26 -0.000904    0.14    108.39   
    18. A(O   1,C   2,H   8)          111.62  0.001119   -0.21    111.41   
    19. A(H   6,C   2,H   7)          108.93 -0.000887    0.18    109.11   
    20. A(O   1,C   2,H   7)          107.47  0.000457   -0.08    107.39   
    21. A(O   1,C   2,H   6)          111.59  0.001057   -0.20    111.40   
    22. D(C   2,O   1,C   0,H   5)     60.72  0.000252   -0.09     60.63   
    23. D(C   2,O   1,C   0,H   3)    -60.63 -0.000218    0.05    -60.57   
    24. D(C   2,O   1,C   0,H   4)   -179.97 -0.000019   -0.01   -179.98   
    25. D(H   8,C   2,O   1,C   0)     60.68  0.000190   -0.06     60.62   
    26. D(H   7,C   2,O   1,C   0)   -179.96  0.000000   -0.01   -179.97   
    27. D(H   6,C   2,O   1,C   0)    -60.60 -0.000180    0.04    -60.55   
    ----------------------------------------------------------------------------

         *************************************************************
         *                GEOMETRY OPTIMIZATION CYCLE   2            *
         *************************************************************
---------------------------------
CARTESIAN COORDINATES (ANGSTROEM)
---------------------------------
  C      1.425353   -0.000311   -0.000501
  O      0.017025    0.012090    0.020889
  C     -0.475833    0.672025    1.163749
  H      1.834326    1.015810   -0.016886
  H      1.732300   -0.521160   -0.903285
  H      1.833801   -0.523559    0.870995
  H     -0.145950    0.177780    2.084040
  H     -1.560729    0.642286    1.113324
  H     -0.146954    1.716460    1.195335

----------------------------
[...]
      pz      :     0.133750  p :     0.303171
      px      :     0.065902
      py      :     0.103519
      dz2     :     0.076695  d :     0.224329
      dxz     :     0.039806
      dyz     :     0.049534
      dx2y2   :     0.039460
      dxy     :     0.018835
  5 H s       :     0.653786  s :     0.653786
      pz      :     0.137882  p :     0.306469
      px      :     0.067332
      py      :     0.101255
      dz2     :     0.076478  d :     0.222718
      dxz     :     0.037749
      dyz     :     0.048931
      dx2y2   :     0.041456
      dxy     :     0.018105
  6 H s       :     0.653784  s :     0.653784
      pz      :     0.115443  p :     0.306471
      px      :     0.095864
      py      :     0.095163
      dz2     :     0.059822  d :     0.222720
      dxz     :     0.051853
      dyz     :     0.051545
      dx2y2   :     0.044643
      dxy     :     0.014857
  7 H s       :     0.661721  s :     0.661721
      pz      :     0.070818  p :     0.303170
      px      :     0.149804
      py      :     0.082548
      dz2     :     0.021896  d :     0.224329
      dxz     :     0.073953
      dyz     :     0.006891
      dx2y2   :     0.043250
      dxy     :     0.078340
  8 H s       :     0.653787  s :     0.653787
      pz      :     0.067511  p :     0.306468
      px      :     0.095857
      py      :     0.143100
      dz2     :     0.021172  d :     0.222719
      dxz     :     0.005757
      dyz     :     0.072958
      dx2y2   :     0.061874
      dxy     :     0.060958


                      *****************************
                      * MAYER POPULATION ANALYSIS *
                      *****************************

  NA   - Mulliken gross atomic population
  ZA   - Total nuclear charge
  QA   - Mulliken gross atomic charge
  VA   - Mayer's total valence
  BVA  - Mayer's bonded valence
  FA   - Mayer's free valence

  ATOM       NA         ZA         QA         VA         BVA        FA
  0 C      6.7341     6.0000    -0.7341     3.7432     3.4501     0.2931
  1 O      8.5064     8.0000    -0.5064     2.1539     1.7174     0.4365
  2 C      6.7341     6.0000    -0.7341     3.7432     3.4501     0.2931
  3 H      0.6807     1.0000     0.3193     0.9843     0.9341     0.0502
  4 H      0.6514     1.0000     0.3486     1.0214     0.9736     0.0478
  5 H      0.6807     1.0000     0.3193     0.9843     0.9341     0.0502
  6 H      0.6807     1.0000     0.3193     0.9843     0.9341     0.0502
  7 H      0.6514     1.0000     0.3486     1.0215     0.9736     0.0478
  8 H      0.6807     1.0000     0.3193     0.9843     0.9341     0.0502

  Mayer bond orders larger than 0.100000
B(  0-C ,  1-O ) :   0.8447 B(  0-C ,  3-H ) :   0.8447 B(  0-C ,  4-H ) :   0.8748 
B(  0-C ,  5-H ) :   0.8447 B(  1-O ,  2-C ) :   0.8446 B(  2-C ,  6-H ) :   0.8447 
B(  2-C ,  7-H ) :   0.8748 B(  2-C ,  8-H ) :   0.8447 


                *******************************************
                * RELAXED MP2 DENSITY POPULATION ANALYSIS *
                *******************************************

------------------------------------------------------------------------------
                           ORCA POPULATION ANALYSIS
------------------------------------------------------------------------------
Input electron density              ... dimethyl_ether_MP2_aug-cc-pVTZ_OPT.pmp2re
BaseName (.gbw .S,...)              ... dimethyl_ether_MP2_aug-cc-pVTZ_OPT

                    ********************************
                    * MULLIKEN POPULATION ANALYSIS *
                    ********************************

-----------------------
MULLIKEN ATOMIC CHARGES
-----------------------
   0 C :   -0.821761
   1 O :   -0.421963
   2 C :   -0.821767
   3 H :    0.335598
   4 H :    0.361539
   5 H :    0.335603
   6 H :    0.335605
   7 H :    0.361539
   8 H :    0.335605
Sum of atomic charges:    0.0000000

--------------------------------
MULLIKEN REDUCED ORBITAL CHARGES
--------------------------------
  0 C s       :     3.316402  s :     3.316402
      pz      :     1.266763  p :     3.223812
      px      :     0.722382
      py      :     1.234667
      dz2     :     0.040133  d :     0.255339
      dxz     :     0.067322
      dyz     :     0.041980
      dx2y2   :     0.029749
      dxy     :     0.076155
      f0      :     0.003554  f :     0.026207
      f+1     :     0.002593
      f-1     :     0.003211
      f+2     :     0.005026
      f-2     :     0.001969
      f+3     :     0.002770
      f-3     :     0.007084
  1 O s       :     3.827766  s :     3.827766
      pz      :     1.491152  p :     4.505489
      px      :     1.280301
      py      :     1.734036
      dz2     :     0.016949  d :     0.079775
      dxz     :     0.017830
      dyz     :     0.013389
      dx2y2   :     0.016981
      dxy     :     0.014626
      f0      :     0.001300  f :     0.008933
      f+1     :     0.001278
      f-1     :     0.001498
      f+2     :     0.001356
      f-2     :     0.000965
      f+3     :     0.001315
      f-3     :     0.001221
  2 C s       :     3.316406  s :     3.316406
      pz      :     0.885460  p :     3.223815
      px      :     1.230780
      py      :     1.107575
      dz2     :     0.086831  d :     0.255338
      dxz     :     0.026328
      dyz     :     0.041973
      dx2y2   :     0.084298
      dxy     :     0.015908
      f0      :     0.003213  f :     0.026207
      f+1     :     0.006885
      f-1     :     0.004119
      f+2     :     0.002967
      f-2     :     0.003914
      f+3     :     0.004030
      f-3     :     0.001079
  3 H s       :     0.618594  s :     0.618594
      pz      :     0.012595  p :     0.043251
      px      :     0.009962
      py      :     0.020693
      dz2     :    -0.000693  d :     0.002557
      dxz     :     0.000889
      dyz     :     0.002928
      dx2y2   :     0.000033
      dxy     :    -0.000600
  4 H s       :     0.582721  s :     0.582721
      pz      :     0.028133  p :     0.055322
      px      :     0.007780
      py      :     0.019410
      dz2     :     0.001075  d :     0.000417
      dxz     :    -0.000343
      dyz     :     0.000057
      dx2y2   :    -0.000440
      dxy     :     0.000068
  5 H s       :     0.618589  s :     0.618589
      pz      :     0.019142  p :     0.043252
      px      :     0.009963
      py      :     0.014147
      dz2     :     0.001660  d :     0.002556
      dxz     :    -0.000547
      dyz     :     0.000486
      dx2y2   :     0.000122
      dxy     :     0.000835
  6 H s       :     0.618585  s :     0.618585
      pz      :     0.014695  p :     0.043252
      px      :     0.013719
      py      :     0.014839
      dz2     :    -0.001242  d :     0.002557
      dxz     :     0.001180
      dyz     :     0.000696
      dx2y2   :     0.001649
      dxy     :     0.000274
  7 H s       :     0.582720  s :     0.582720
      pz      :     0.010349  p :     0.055324
      px      :     0.031489
      py      :     0.013486
      dz2     :     0.000331  d :     0.000418
      dxz     :    -0.000299
      dyz     :     0.000061
      dx2y2   :    -0.001045
      dxy     :     0.001370
  8 H s       :     0.618585  s :     0.618585
      pz      :     0.011412  p :     0.043254
      px      :     0.013715
      py      :     0.018127
      dz2     :     0.000555  d :     0.002557
      dxz     :     0.000070
      dyz     :     0.000439
      dx2y2   :     0.000108
      dxy     :     0.001384


                     *******************************
                     * LOEWDIN POPULATION ANALYSIS *
                     *******************************

----------------------
LOEWDIN ATOMIC CHARGES
----------------------
   0 C :    0.280610
   1 O :    0.545568
   2 C :    0.280625
   3 H :   -0.182701
   4 H :   -0.188000
   5 H :   -0.182700
   6 H :   -0.182702
   7 H :   -0.188000
   8 H :   -0.182701

-------------------------------
LOEWDIN REDUCED ORBITAL CHARGES
-------------------------------
  0 C s       :     2.468111  s :     2.468111
      pz      :     0.798160  p :     2.206698
      px      :     0.616109
      py      :     0.792429
      dz2     :     0.107677  d :     0.720172
      dxz     :     0.180367
      dyz     :     0.076843
      dx2y2   :     0.158684
      dxy     :     0.196601
      f0      :     0.036739  f :     0.324409
      f+1     :     0.042076
      f-1     :     0.020764
      f+2     :     0.059274
      f-2     :     0.014117
      f+3     :     0.060868
      f-3     :     0.090570
  1 O s       :     3.016693  s :     3.016693
      pz      :     1.285821  p :     3.839808
      px      :     1.177783
      py      :     1.376204
      dz2     :     0.095690  d :     0.470684
      dxz     :     0.126154
      dyz     :     0.057868
      dx2y2   :     0.096559
      dxy     :     0.094412
      f0      :     0.028423  f :     0.127248
      f+1     :     0.013269
      f-1     :     0.011015
      f+2     :     0.028750
      f-2     :     0.009434
      f+3     :     0.011066
      f-3     :     0.025291
  2 C s       :     2.468113  s :     2.468113
      pz      :     0.676012  p :     2.206696
      px      :     0.778967
      py      :     0.751717
      dz2     :     0.228886  d :     0.720161
      dxz     :     0.097900
      dyz     :     0.156565
      dx2y2   :     0.174456
      dxy     :     0.062355
      f0      :     0.063854  f :     0.324405
      f+1     :     0.050190
      f-1     :     0.067436
      f+2     :     0.054724
      f-2     :     0.046521
      f+3     :     0.025596
      f-3     :     0.016085
  3 H s       :     0.646761  s :     0.646761
      pz      :     0.090281  p :     0.312979
      px      :     0.070336
      py      :     0.152363
      dz2     :     0.016296  d :     0.222960
      dxz     :     0.011172
      dyz     :     0.082973
      dx2y2   :     0.066719
      dxy     :     0.045800
  4 H s       :     0.655029  s :     0.655029
      pz      :     0.134651  p :     0.308140
      px      :     0.067923
      py      :     0.105566
      dz2     :     0.076452  d :     0.224832
      dxz     :     0.040210
      dyz     :     0.049579
      dx2y2   :     0.038994
      dxy     :     0.019597
  5 H s       :     0.646765  s :     0.646765
      pz      :     0.139498  p :     0.312977
      px      :     0.070333
      py      :     0.103146
      dz2     :     0.076154  d :     0.222957
      dxz     :     0.038175
      dyz     :     0.048944
      dx2y2   :     0.040887
      dxy     :     0.018797
  6 H s       :     0.646763  s :     0.646763
      pz      :     0.118079  p :     0.312979
      px      :     0.097980
      py      :     0.096921
      dz2     :     0.059587  d :     0.222960
      dxz     :     0.052237
      dyz     :     0.051954
      dx2y2   :     0.044113
      dxy     :     0.015068
  7 H s       :     0.655029  s :     0.655029
      pz      :     0.072996  p :     0.308139
      px      :     0.150124
      py      :     0.085020
      dz2     :     0.022293  d :     0.224831
      dxz     :     0.073694
      dyz     :     0.006995
      dx2y2   :     0.043491
      dxy     :     0.078358
  8 H s       :     0.646766  s :     0.646766
      pz      :     0.070242  p :     0.312977
      px      :     0.097972
      py      :     0.144762
      dz2     :     0.021571  d :     0.222958
      dxz     :     0.006030
      dyz     :     0.072399
      dx2y2   :     0.061678
      dxy     :     0.061280


                      *****************************
                      * MAYER POPULATION ANALYSIS *
                      *****************************

  NA   - Mulliken gross atomic population
  ZA   - Total nuclear charge
  QA   - Mulliken gross atomic charge
  VA   - Mayer's total valence
  BVA  - Mayer's bonded valence
  FA   - Mayer's free valence

  ATOM       NA         ZA         QA         VA         BVA        FA
  0 C      6.8218     6.0000    -0.8218     3.7862     3.4961     0.2901
  1 O      8.4220     8.0000    -0.4220     2.2804     1.8543     0.4260
  2 C      6.8218     6.0000    -0.8218     3.7862     3.4961     0.2901
  3 H      0.6644     1.0000     0.3356     0.9632     0.9138     0.0493
  4 H      0.6385     1.0000     0.3615     1.0024     0.9548     0.0476
  5 H      0.6644     1.0000     0.3356     0.9632     0.9138     0.0493
  6 H      0.6644     1.0000     0.3356     0.9632     0.9138     0.0493
  7 H      0.6385     1.0000     0.3615     1.0024     0.9548     0.0476
  8 H      0.6644     1.0000     0.3356     0.9632     0.9138     0.0493

  Mayer bond orders larger than 0.100000
B(  0-C ,  1-O ) :   0.9208 B(  0-C ,  3-H ) :   0.8235 B(  0-C ,  4-H ) :   0.8642 
B(  0-C ,  5-H ) :   0.8235 B(  1-O ,  2-C ) :   0.9208 B(  2-C ,  6-H ) :   0.8235 
B(  2-C ,  7-H ) :   0.8642 B(  2-C ,  8-H ) :   0.8235 


----------------------------------
MP2 DERIVATIVE INTEGRAL GENERATION
----------------------------------


Input Wavefunction Amplitudes       ... dimethyl_ether_MP2_aug-cc-pVTZ_OPT.mp2tsaa.tmp
Input Correlated Electron Density   ... dimethyl_ether_MP2_aug-cc-pVTZ_OPT.pmp2re
Input Energy Weighted Density       ... dimethyl_ether_MP2_aug-cc-pVTZ_OPT.wmp2.tmp
Input SCF Electron Density          ... dimethyl_ether_MP2_aug-cc-pVTZ_OPT.scfp

One-Electron Terms    ...
                        ... One-Electron Terms done
Prescreening matrices              ... done

Batch handling in the gradient evaluation:
Memory available                      ... 1000.0 MB
Memory per occupied orbital in Q2     ...    5.8 MB
Memory per occupied orbital in Q3     ...    0.1 MB
Total memory requirement per |i>      ...    5.9 MB
Max. Number of orbitals possible      ...    169
Number of orbitals treated per batch  ...     10
Number of batches to be done          ...      1
Batch   0: i=    3 ...    12

---------------------------------------
MP2 TOTAL ENERGY:     -154.737897420 Eh
---------------------------------------

-----------------------------------
NORM OF THE MP2 GRADIENT:  0.000150
-----------------------------------

-------------------------   --------------------
FINAL SINGLE POINT ENERGY      -154.737897419988
-------------------------   --------------------

                                *** OPTIMIZATION RUN DONE ***

                            ***************************************
                            *     ORCA property calculations      *
                            ***************************************

                                    ---------------------
                                    Active property flags
                                    ---------------------
   (+) Dipole Moment


------------------------------------------------------------------------------
                       ORCA ELECTRIC PROPERTIES CALCULATION
------------------------------------------------------------------------------

Dipole Moment Calculation                       ... on
Quadrupole Moment Calculation                   ... off
Polarizability Calculation                      ... off
GBWName                                         ... dimethyl_ether_MP2_aug-cc-pVTZ_OPT.gbw
Electron density file                           ... dimethyl_ether_MP2_aug-cc-pVTZ_OPT.scfp
The origin for moment calculation is the CENTER OF MASS  = ( 0.622203,  0.439977  0.762038)

-------------
DIPOLE MOMENT
-------------
                                X             Y             Z
Electronic contribution:     -1.13685      -0.80383      -1.39230
Nuclear contribution   :      1.47463       1.04267       1.80602
                        -----------------------------------------
Total Dipole Moment    :      0.33777       0.23884       0.41372
                        -----------------------------------------
Magnitude (a.u.)       :      0.58506
Magnitude (Debye)      :      1.48711



--------------------
Rotational spectrum 
--------------------
 
Rotational constants in cm-1:     1.286004     0.339768     0.299167 
Rotational constants in MHz : 38553.444095 10185.980426  8968.803123 

 Dipole components along the rotational axes: 
x,y,z [a.u.] :    -0.000017     0.585062    -0.000004 
x,y,z [Debye]:    -0.000042     1.487110    -0.000009 

 

                         *** MP2 UNRELAXED DENSITY ***

------------------------------------------------------------------------------
                       ORCA ELECTRIC PROPERTIES CALCULATION
------------------------------------------------------------------------------

Dipole Moment Calculation                       ... on
Quadrupole Moment Calculation                   ... off
Polarizability Calculation                      ... off
GBWName                                         ... dimethyl_ether_MP2_aug-cc-pVTZ_OPT.gbw
Electron density file                           ... dimethyl_ether_MP2_aug-cc-pVTZ_OPT.pmp2ur
The origin for moment calculation is the CENTER OF MASS  = ( 0.622203,  0.439977  0.762038)

-------------
DIPOLE MOMENT
-------------
                                X             Y             Z
Electronic contribution:     -1.14924      -0.81258      -1.40747
Nuclear contribution   :      1.47463       1.04267       1.80602
                        -----------------------------------------
Total Dipole Moment    :      0.32539       0.23008       0.39855
                        -----------------------------------------
Magnitude (a.u.)       :      0.56361
Magnitude (Debye)      :      1.43258



--------------------
Rotational spectrum 
--------------------
 
Rotational constants in cm-1:     1.286004     0.339768     0.299167 
Rotational constants in MHz : 38553.444095 10185.980426  8968.803123 

 Dipole components along the rotational axes: 
x,y,z [a.u.] :    -0.000016     0.563610    -0.000003 
x,y,z [Debye]:    -0.000042     1.432583    -0.000009 

 

                           *** MP2 RELAXED DENSITY ***

------------------------------------------------------------------------------
                       ORCA ELECTRIC PROPERTIES CALCULATION
------------------------------------------------------------------------------

Dipole Moment Calculation                       ... on
Quadrupole Moment Calculation                   ... off
Polarizability Calculation                      ... off
GBWName                                         ... dimethyl_ether_MP2_aug-cc-pVTZ_OPT.gbw
Electron density file                           ... dimethyl_ether_MP2_aug-cc-pVTZ_OPT.pmp2re
The origin for moment calculation is the CENTER OF MASS  = ( 0.622203,  0.439977  0.762038)

-------------
DIPOLE MOMENT
-------------
                                X             Y             Z
Electronic contribution:     -1.16680      -0.82500      -1.42899
Nuclear contribution   :      1.47463       1.04267       1.80602
                        -----------------------------------------
Total Dipole Moment    :      0.30782       0.21766       0.37703
                        -----------------------------------------
Magnitude (a.u.)       :      0.53319
Magnitude (Debye)      :      1.35525



--------------------
Rotational spectrum 
--------------------
 
Rotational constants in cm-1:     1.286004     0.339768     0.299167 
Rotational constants in MHz : 38553.444095 10185.980426  8968.803123 

 Dipole components along the rotational axes: 
x,y,z [a.u.] :    -0.000014     0.533186    -0.000003 
x,y,z [Debye]:    -0.000037     1.355250    -0.000008 

 

Timings for individual modules:

Sum of individual times         ...      476.014 sec (=   7.934 min)
GTO integral calculation        ...        4.632 sec (=   0.077 min)   1.0 %
SCF iterations                  ...       61.664 sec (=   1.028 min)  13.0 %
MP2 module                      ...      409.392 sec (=   6.823 min)  86.0 %
Geometry relaxation             ...        0.325 sec (=   0.005 min)   0.1 %
                             ****ORCA TERMINATED NORMALLY****
TOTAL RUN TIME: 0 days 0 hours 7 minutes 57 seconds 278 msec
