
                                 *****************
                                 * O   R   C   A *
                                 *****************

                                            #,                                       
                                            ###                                      
                                            ####                                     
                                            #####                                    
                                            ######                                   
                                           ########,                                 
                                     ,,################,,,,,                         
                               ,,#################################,,                 
                          ,,##########################################,,             
                       ,#########################################, ''#####,          
                    ,#############################################,,   '####,        
                  ,##################################################,,,,####,       
                ,###########''''           ''''###############################       
              ,#####''   ,,,,##########,,,,          '''####'''          '####       
            ,##' ,,,,###########################,,,                        '##       
           ' ,,###''''                  '''############,,,                           
         ,,##''                                '''############,,,,        ,,,,,,###''
      ,#''                                            '''#######################'''  
     '                                                          ''''####''''         
             ,#######,   #######,   ,#######,      ##                                
            ,#'     '#,  ##    ##  ,#'     '#,    #''#        ######   ,####,        
            ##       ##  ##   ,#'  ##            #'  '#       #        #'  '#        
            ##       ##  #######   ##           ,######,      #####,   #    #        
            '#,     ,#'  ##    ##  '#,     ,#' ,#      #,         ##   #,  ,#        
             '#######'   ##     ##  '#######'  #'      '#     #####' # '####'        



                  #######################################################
                  #                        -***-                        #
                  #          Department of theory and spectroscopy      #
                  #    Directorship and core code : Frank Neese         #
                  #        Max Planck Institute fuer Kohlenforschung    #
                  #                Kaiser Wilhelm Platz 1               #
                  #                 D-45470 Muelheim/Ruhr               #
                  #                      Germany                        #
                  #                                                     #
                  #                  All rights reserved                #
                  #                        -***-                        #
                  #######################################################


                         Program Version 5.0.1 -  RELEASE  -


 With contributions from (in alphabetic order):
   Daniel Aravena         : Magnetic Suceptibility
   Michael Atanasov       : Ab Initio Ligand Field Theory (pilot matlab implementation)
   Alexander A. Auer      : GIAO ZORA, VPT2 properties, NMR spectrum
   Ute Becker             : Parallelization
   Giovanni Bistoni       : ED, misc. LED, open-shell LED, HFLD
   Martin Brehm           : Molecular dynamics
   Dmytro Bykov           : SCF Hessian
   Vijay G. Chilkuri      : MRCI spin determinant printing, contributions to CSF-ICE
   Dipayan Datta          : RHF DLPNO-CCSD density
   Achintya Kumar Dutta   : EOM-CC, STEOM-CC
   Dmitry Ganyushin       : Spin-Orbit,Spin-Spin,Magnetic field MRCI
   Miquel Garcia          : C-PCM and meta-GGA Hessian, CC/C-PCM, Gaussian charge scheme
   Yang Guo               : DLPNO-NEVPT2, F12-NEVPT2, CIM, IAO-localization
   Andreas Hansen         : Spin unrestricted coupled pair/coupled cluster methods
   Benjamin Helmich-Paris : MC-RPA, TRAH-SCF, COSX integrals
   Lee Huntington         : MR-EOM, pCC
   Robert Izsak           : Overlap fitted RIJCOSX, COSX-SCS-MP3, EOM
   Marcus Kettner         : VPT2
   Christian Kollmar      : KDIIS, OOCD, Brueckner-CCSD(T), CCSD density, CASPT2, CASPT2-K
   Simone Kossmann        : Meta GGA functionals, TD-DFT gradient, OOMP2, MP2 Hessian
   Martin Krupicka        : Initial AUTO-CI
   Lucas Lang             : DCDCAS
   Marvin Lechner         : AUTO-CI (C++ implementation), FIC-MRCC
   Dagmar Lenk            : GEPOL surface, SMD
   Dimitrios Liakos       : Extrapolation schemes; Compound Job, initial MDCI parallelization
   Dimitrios Manganas     : Further ROCIS development; embedding schemes
   Dimitrios Pantazis     : SARC Basis sets
   Anastasios Papadopoulos: AUTO-CI, single reference methods and gradients
   Taras Petrenko         : DFT Hessian,TD-DFT gradient, ASA, ECA, R-Raman, ABS, FL, XAS/XES, NRVS
   Peter Pinski           : DLPNO-MP2, DLPNO-MP2 Gradient
   Christoph Reimann      : Effective Core Potentials
   Marius Retegan         : Local ZFS, SOC
   Christoph Riplinger    : Optimizer, TS searches, QM/MM, DLPNO-CCSD(T), (RO)-DLPNO pert. Triples
   Tobias Risthaus        : Range-separated hybrids, TD-DFT gradient, RPA, STAB
   Michael Roemelt        : Original ROCIS implementation
   Masaaki Saitow         : Open-shell DLPNO-CCSD energy and density
   Barbara Sandhoefer     : DKH picture change effects
   Avijit Sen             : IP-ROCIS
   Kantharuban Sivalingam : CASSCF convergence, NEVPT2, FIC-MRCI
   Bernardo de Souza      : ESD, SOC TD-DFT
   Georgi Stoychev        : AutoAux, RI-MP2 NMR, DLPNO-MP2 response
   Willem Van den Heuvel  : Paramagnetic NMR
   Boris Wezisla          : Elementary symmetry handling
   Frank Wennmohs         : Technical directorship


 We gratefully acknowledge several colleagues who have allowed us to
 interface, adapt or use parts of their codes:
   Stefan Grimme, W. Hujo, H. Kruse, P. Pracht,  : VdW corrections, initial TS optimization,
                  C. Bannwarth, S. Ehlert          DFT functionals, gCP, sTDA/sTD-DF
   Ed Valeev, F. Pavosevic, A. Kumar             : LibInt (2-el integral package), F12 methods
   Garnet Chan, S. Sharma, J. Yang, R. Olivares  : DMRG
   Ulf Ekstrom                                   : XCFun DFT Library
   Mihaly Kallay                                 : mrcc  (arbitrary order and MRCC methods)
   Jiri Pittner, Ondrej Demel                    : Mk-CCSD
   Frank Weinhold                                : gennbo (NPA and NBO analysis)
   Christopher J. Cramer and Donald G. Truhlar   : smd solvation model
   Lars Goerigk                                  : TD-DFT with DH, B97 family of functionals
   V. Asgeirsson, H. Jonsson                     : NEB implementation
   FAccTs GmbH                                   : IRC, NEB, NEB-TS, DLPNO-Multilevel, CI-OPT
                                                   MM, QMMM, 2- and 3-layer-ONIOM, Crystal-QMMM,
                                                   LR-CPCM, SF, NACMEs, symmetry and pop. for TD-DFT,
                                                   nearIR, NL-DFT gradient (VV10), updates on ESD,
                                                   ML-optimized integration grids
   S Lehtola, MJT Oliveira, MAL Marques          : LibXC Library
   Liviu Ungur et al                             : ANISO software


 Your calculation uses the libint2 library for the computation of 2-el integrals
 For citations please refer to: http://libint.valeyev.net

 Your ORCA version has been built with support for libXC version: 5.1.0
 For citations please refer to: https://tddft.org/programs/libxc/

 This ORCA versions uses:
   CBLAS   interface :  Fast vector & matrix operations
   LAPACKE interface :  Fast linear algebra routines
   SCALAPACK package :  Parallel linear algebra routines
   Shared memory     :  Shared parallel matrices
   BLAS/LAPACK       :  OpenBLAS 0.3.15  USE64BITINT DYNAMIC_ARCH NO_AFFINITY Zen SINGLE_THREADED
        Core in use  :  Zen
   Copyright (c) 2011-2014, The OpenBLAS Project




***************************************
The coordinates will be read from file: nitrogen_monoxide.xyz
***************************************


================================================================================

----- Orbital basis set information -----
Your calculation utilizes the basis: def2-TZVP
   F. Weigend and R. Ahlrichs, Phys. Chem. Chem. Phys. 7, 3297 (2005).

----- AuxJ basis set information -----
Your calculation utilizes the auxiliary basis: def2/J
   F. Weigend, Phys. Chem. Chem. Phys. 8, 1057 (2006).

================================================================================
                                        WARNINGS
                       Please study these warnings very carefully!
================================================================================

WARNING: Old DensityContainer found on disk!
         Will remove this file - 
         If you want to keep old densities, please start your calculation with a different basename. 


WARNING: your system is open-shell and RHF/RKS was chosen
  ===> : WILL SWITCH to UHF/UKS


WARNING: Geometry Optimization
  ===> : Switching off AutoStart
         For restart on a previous wavefunction, please use MOREAD

INFO   : the flag for use of the SHARK integral package has been found!

================================================================================
                                       INPUT FILE
================================================================================
NAME = nitrogen_monoxide_OPT.inp
|  1> 
|  2> %pal
|  3>   nprocs 6
|  4> end
|  5> %maxcore 2000
|  6> 
|  7> ! PBE0 def2-TZVP TightOPT Freq
|  8> ! RIJCOSX def2/J
|  9> 
| 10> * xyzfile 0 2 nitrogen_monoxide.xyz
| 11> 
| 12> 
| 13>                          ****END OF INPUT****
================================================================================

                       *****************************
                       * Geometry Optimization Run *
                       *****************************

Geometry optimization settings:
Update method            Update   .... BFGS
Choice of coordinates    CoordSys .... Z-matrix Internals
Initial Hessian          InHess   .... Almoef's Model

Convergence Tolerances:
Energy Change            TolE     ....  1.0000e-06 Eh
Max. Gradient            TolMAXG  ....  1.0000e-04 Eh/bohr
RMS Gradient             TolRMSG  ....  3.0000e-05 Eh/bohr
Max. Displacement        TolMAXD  ....  1.0000e-03 bohr
RMS Displacement         TolRMSD  ....  6.0000e-04 bohr
Strict Convergence                ....  False
------------------------------------------------------------------------------
                        ORCA OPTIMIZATION COORDINATE SETUP
------------------------------------------------------------------------------

The optimization will be done in new redundant internal coordinates
Making redundant internal coordinates   ...  (new redundants) done
Evaluating the initial hessian          ...  (Almloef) done
Evaluating the coordinates              ...  done
Calculating the B-matrix                .... done
Calculating the G-matrix                .... done
Diagonalizing the G-matrix              .... done
The first mode is                       ....    0
The number of degrees of freedom        ....    1

    -----------------------------------------------------------------
                    Redundant Internal Coordinates


    -----------------------------------------------------------------
         Definition                    Initial Value    Approx d2E/dq
    -----------------------------------------------------------------
      1. B(O   1,N   0)                  1.1398         1.256791   
    -----------------------------------------------------------------

Number of atoms                         .... 2
Number of degrees of freedom            .... 1

         *************************************************************
         *                GEOMETRY OPTIMIZATION CYCLE   1            *
         *************************************************************
---------------------------------
CARTESIAN COORDINATES (ANGSTROEM)
---------------------------------
  N    -27.883207   12.166670    0.000000
  O    -26.743453   12.166670    0.000000

----------------------------
CARTESIAN COORDINATES (A.U.)
----------------------------
  NO LB      ZA    FRAG     MASS         X           Y           Z
   0 N     7.0000    0    14.007  -52.691625   22.991674    0.000000
   1 O     8.0000    0    15.999  -50.537802   22.991674    0.000000

--------------------------------
INTERNAL COORDINATES (ANGSTROEM)
--------------------------------
 N      0   0   0     0.000000000000     0.00000000     0.00000000
 O      1   0   0     1.139754507670     0.00000000     0.00000000

---------------------------
INTERNAL COORDINATES (A.U.)
---------------------------
 N      0   0   0     0.000000000000     0.00000000     0.00000000
 O      1   0   0     2.153823879399     0.00000000     0.00000000

---------------------
BASIS SET INFORMATION
---------------------
There are 2 groups of distinct atoms

 Group   1 Type N   : 11s6p2d1f contracted to 5s3p2d1f pattern {62111/411/11/1}
 Group   2 Type O   : 11s6p2d1f contracted to 5s3p2d1f pattern {62111/411/11/1}

Atom   0N    basis set group =>   1
Atom   1O    basis set group =>   2
---------------------------------
AUXILIARY/J BASIS SET INFORMATION
---------------------------------
There are 2 groups of distinct atoms

 Group   1 Type N   : 12s5p4d2f1g contracted to 6s4p3d1f1g pattern {711111/2111/211/2/1}
 Group   2 Type O   : 12s5p4d2f1g contracted to 6s4p3d1f1g pattern {711111/2111/211/2/1}

Atom   0N    basis set group =>   1
Atom   1O    basis set group =>   2


           ************************************************************
           *        Program running with 6 parallel MPI-processes     *
           *              working on a common directory               *
           ************************************************************
------------------------------------------------------------------------------
                           ORCA GTO INTEGRAL CALCULATION
                           -- RI-GTO INTEGRALS CHOSEN --
------------------------------------------------------------------------------
------------------------------------------------------------------------------
                   ___                                                        
                  /   \      - P O W E R E D   B Y -                         
                 /     \                                                     
                 |  |  |   _    _      __       _____    __    __             
                 |  |  |  | |  | |    /  \     |  _  \  |  |  /  |          
                  \  \/   | |  | |   /    \    | | | |  |  | /  /          
                 / \  \   | |__| |  /  /\  \   | |_| |  |  |/  /          
                |  |  |   |  __  | /  /__\  \  |    /   |      \           
                |  |  |   | |  | | |   __   |  |    \   |  |\   \          
                \     /   | |  | | |  |  |  |  | |\  \  |  | \   \       
                 \___/    |_|  |_| |__|  |__|  |_| \__\ |__|  \__/        
                                                                              
                      - O R C A' S   B I G   F R I E N D -                    
                                      &                                       
                       - I N T E G R A L  F E E D E R -                       
                                                                              
 v1 FN, 2020, v2 2021                                                         
------------------------------------------------------------------------------


Reading SHARK input file nitrogen_monoxide_OPT.SHARKINP.tmp ... ok
----------------------
SHARK INTEGRAL PACKAGE
----------------------

Number of atoms                             ...      2
Number of basis functions                   ...     62
Number of shells                            ...     22
Maximum angular momentum                    ...      3
Integral batch strategy                     ... SHARK/LIBINT Hybrid
RI-J (if used) integral strategy            ... SPLIT-RIJ (Revised 2003 algorithm where possible)
Printlevel                                  ...      1
Contraction scheme used                     ... SEGMENTED contraction
Coulomb Range Separation                    ... NOT USED
Exchange Range Separation                   ... NOT USED
Finite Nucleus Model                        ... NOT USED
Auxiliary Coulomb fitting basis             ... AVAILABLE
   # of basis functions in Aux-J            ...     98
   # of shells in Aux-J                     ...     30
   Maximum angular momentum in Aux-J        ...      4
Auxiliary J/K fitting basis                 ... NOT available
Auxiliary Correlation fitting basis         ... NOT available
Auxiliary 'external' fitting basis          ... NOT available
Integral threshold                          ...     2.500000e-11
Primitive cut-off                           ...     2.500000e-12
Primitive pair pre-selection threshold      ...     2.500000e-12

Calculating pre-screening integrals         ... done (  0.0 sec) Dimension = 22
Organizing shell pair data                  ... done (  0.0 sec)
Shell pair information
Total number of shell pairs                 ...       253
Shell pairs after pre-screening             ...       252
Total number of primitive shell pairs       ...       864
Primitive shell pairs kept                  ...       787
          la=0 lb=0:     54 shell pairs
          la=1 lb=0:     60 shell pairs
          la=1 lb=1:     21 shell pairs
          la=2 lb=0:     40 shell pairs
          la=2 lb=1:     24 shell pairs
          la=2 lb=2:     10 shell pairs
          la=3 lb=0:     20 shell pairs
          la=3 lb=1:     12 shell pairs
          la=3 lb=2:      8 shell pairs
          la=3 lb=3:      3 shell pairs

Calculating one electron integrals          ... done (  0.0 sec)
Calculating RI/J V-Matrix + Cholesky decomp.... done (  0.0 sec)
Calculating Nuclear repulsion               ... done (  0.0 sec) ENN=     26.000268887183 Eh

SHARK setup successfully completed in   0.1 seconds

Maximum memory used throughout the entire GTOINT-calculation: 13.7 MB


           ************************************************************
           *        Program running with 6 parallel MPI-processes     *
           *              working on a common directory               *
           ************************************************************
-------------------------------------------------------------------------------
                                 ORCA SCF
-------------------------------------------------------------------------------

------------
SCF SETTINGS
------------
Hamiltonian:
 Density Functional     Method          .... DFT(GTOs)
 Exchange Functional    Exchange        .... PBE
   PBE kappa parameter   XKappa         ....  0.804000
   PBE mue parameter    XMuePBE         ....  0.219520
 Correlation Functional Correlation     .... PBE
   PBE beta parameter  CBetaPBE         ....  0.066725
 LDA part of GGA corr.  LDAOpt          .... PW91-LDA
 Gradients option       PostSCFGGA      .... off
 Hybrid DFT is turned on
   Fraction HF Exchange ScalHFX         ....  0.250000
   Scaling of DF-GGA-X  ScalDFX         ....  0.750000
   Scaling of DF-GGA-C  ScalDFC         ....  1.000000
   Scaling of DF-LDA-C  ScalLDAC        ....  1.000000
   Perturbative correction              ....  0.000000
   Density functional embedding theory  .... OFF
   NL short-range parameter             ....  6.900000
 RI-approximation to the Coulomb term is turned on
   Number of AuxJ basis functions       .... 98
   RIJ-COSX (HFX calculated with COS-X)).... on


General Settings:
 Integral files         IntName         .... nitrogen_monoxide_OPT
 Hartree-Fock type      HFTyp           .... UHF
 Total Charge           Charge          ....    0
 Multiplicity           Mult            ....    2
 Number of Electrons    NEL             ....   15
 Basis Dimension        Dim             ....   62
 Nuclear Repulsion      ENuc            ....     26.0002688872 Eh

Convergence Acceleration:
 DIIS                   CNVDIIS         .... on
   Start iteration      DIISMaxIt       ....    12
   Startup error        DIISStart       ....  0.200000
   # of expansion vecs  DIISMaxEq       ....     5
   Bias factor          DIISBfac        ....   1.050
   Max. coefficient     DIISMaxC        ....  10.000
 Trust-Rad. Augm. Hess. CNVTRAH         .... auto
   Auto Start mean grad. ratio tolernc. ....  1.125000
   Auto Start start iteration           ....    20
   Auto Start num. interpolation iter.  ....    10
   Max. Number of Micro iterations      ....    16
   Max. Number of Macro iterations      .... Maxiter - #DIIS iter
   Number of Davidson start vectors     ....     2
   Converg. threshold I  (grad. norm)   ....   1.000e-05
   Converg. threshold II (energy diff.) ....   1.000e-08
   Grad. Scal. Fac. for Micro threshold ....   0.100
   Minimum threshold for Micro iter.    ....   0.010
   NR start threshold (gradient norm)   ....   0.001
   Initial trust radius                 ....   0.400
   Minimum AH scaling param. (alpha)    ....   1.000
   Maximum AH scaling param. (alpha)    .... 1000.000
   Orbital update algorithm             .... Taylor
   White noise on init. David. guess    .... on
   Maximum white noise                  ....   0.010
   Quad. conv. algorithm                .... NR
 SOSCF                  CNVSOSCF        .... off
 Level Shifting         CNVShift        .... on
   Level shift para.    LevelShift      ....    0.2500
   Turn off err/grad.   ShiftErr        ....    0.0010
 Zerner damping         CNVZerner       .... off
 Static damping         CNVDamp         .... on
   Fraction old density DampFac         ....    0.7000
   Max. Damping (<1)    DampMax         ....    0.9800
   Min. Damping (>=0)   DampMin         ....    0.0000
   Turn off err/grad.   DampErr         ....    0.1000
 Fernandez-Rico         CNVRico         .... off

SCF Procedure:
 Maximum # iterations   MaxIter         ....   125
 SCF integral mode      SCFMode         .... Direct
   Integral package                     .... SHARK and LIBINT hybrid scheme
 Reset frequency        DirectResetFreq ....    20
 Integral Threshold     Thresh          ....  2.500e-11 Eh
 Primitive CutOff       TCut            ....  2.500e-12 Eh

Convergence Tolerance:
 Convergence Check Mode ConvCheckMode   .... Total+1el-Energy
 Convergence forced     ConvForced      .... 0
 Energy Change          TolE            ....  1.000e-08 Eh
 1-El. energy change                    ....  1.000e-05 Eh
 DIIS Error             TolErr          ....  5.000e-07


Diagonalization of the overlap matrix:
Smallest eigenvalue                        ... 1.010e-03
Time for diagonalization                   ...    0.001 sec
Threshold for overlap eigenvalues          ... 1.000e-08
Number of eigenvalues below threshold      ... 0
Time for construction of square roots      ...    0.000 sec
Total time needed                          ...    0.001 sec

Time for model grid setup =    0.009 sec

------------------------------
INITIAL GUESS: MODEL POTENTIAL
------------------------------
Loading Hartree-Fock densities                     ... done
Calculating cut-offs                               ... done
Initializing the effective Hamiltonian             ... done
Setting up the integral package (SHARK)            ... done
Starting the Coulomb interaction                   ... done (   0.0 sec)
Reading the grid                                   ... done
Mapping shells                                     ... done
Starting the XC term evaluation                    ... done (   0.0 sec)
  promolecular density results
     # of electrons  =     15.000008164
     EX              =    -14.603627215
     EC              =     -0.491635070
     EX+EC           =    -15.095262285
Transforming the Hamiltonian                       ... done (   0.0 sec)
Diagonalizing the Hamiltonian                      ... done (   0.0 sec)
Back transforming the eigenvectors                 ... done (   0.0 sec)
Now organizing SCF variables                       ... done
                      ------------------
                      INITIAL GUESS DONE (   0.0 sec)
                      ------------------
-------------------
DFT GRID GENERATION
-------------------

General Integration Accuracy     IntAcc      ... 4.388
Radial Grid Type                 RadialGrid  ... OptM3 with GC (2021)
Angular Grid (max. ang.)         AngularGrid ... 4 (Lebedev-302)
Angular grid pruning method      GridPruning ... 4 (adaptive)
Weight generation scheme         WeightScheme... Becke
Basis function cutoff            BFCut       ... 1.0000e-11
Integration weight cutoff        WCut        ... 1.0000e-14
Angular grids for H and He will be reduced by one unit
Partially contracted basis set               ... off
Rotationally invariant grid construction     ... off

Total number of grid points                  ...    12257
Total number of batches                      ...      192
Average number of points per batch           ...       63
Average number of grid points per atom       ...     6128
Time for grid setup =    0.053 sec

--------------------
COSX GRID GENERATION
--------------------

GRIDX 1
-------
General Integration Accuracy     IntAcc      ... 3.816
Radial Grid Type                 RadialGrid  ... OptM3 with GC (2021)
Angular Grid (max. ang.)         AngularGrid ... 1 (Lebedev-50)
Angular grid pruning method      GridPruning ... 4 (adaptive)
Weight generation scheme         WeightScheme... Becke
Basis function cutoff            BFCut       ... 1.0000e-11
Integration weight cutoff        WCut        ... 1.0000e-14
Angular grids for H and He will be reduced by one unit
Partially contracted basis set               ... on
Rotationally invariant grid construction     ... off

Total number of grid points                  ...     1533
Total number of batches                      ...       25
Average number of points per batch           ...       61
Average number of grid points per atom       ...      766
UseSFitting                                  ... on

GRIDX 2
-------
General Integration Accuracy     IntAcc      ... 4.020
Radial Grid Type                 RadialGrid  ... OptM3 with GC (2021)
Angular Grid (max. ang.)         AngularGrid ... 2 (Lebedev-110)
Angular grid pruning method      GridPruning ... 4 (adaptive)
Weight generation scheme         WeightScheme... Becke
Basis function cutoff            BFCut       ... 1.0000e-11
Integration weight cutoff        WCut        ... 1.0000e-14
Angular grids for H and He will be reduced by one unit
Partially contracted basis set               ... on
Rotationally invariant grid construction     ... off

Total number of grid points                  ...     3763
Total number of batches                      ...       59
Average number of points per batch           ...       63
Average number of grid points per atom       ...     1882
UseSFitting                                  ... on

GRIDX 3
-------
General Integration Accuracy     IntAcc      ... 4.338
Radial Grid Type                 RadialGrid  ... OptM3 with GC (2021)
Angular Grid (max. ang.)         AngularGrid ... 3 (Lebedev-194)
Angular grid pruning method      GridPruning ... 4 (adaptive)
Weight generation scheme         WeightScheme... Becke
Basis function cutoff            BFCut       ... 1.0000e-11
Integration weight cutoff        WCut        ... 1.0000e-14
Angular grids for H and He will be reduced by one unit
Partially contracted basis set               ... on
Rotationally invariant grid construction     ... off

Total number of grid points                  ...     8421
Total number of batches                      ...      132
Average number of points per batch           ...       63
Average number of grid points per atom       ...     4210
UseSFitting                                  ... on

Time for X-Grid setup             =    0.037 sec

--------------
SCF ITERATIONS
--------------
ITER       Energy         Delta-E        Max-DP      RMS-DP      [F,P]     Damp
               ***  Starting incremental Fock matrix formation  ***
  0   -129.7959757914   0.000000000000 0.00745875  0.00034165  0.0817450 0.7000
  1   -129.7998896373  -0.003913845904 0.00553504  0.00023747  0.0405147 0.7000
                               ***Turning on DIIS***
  2   -129.8019389138  -0.002049276459 0.01381460  0.00050645  0.0199640 0.0000
  3   -129.8063827506  -0.004443836784 0.00608477  0.00020485  0.0114930 0.0000
  4   -129.8066282841  -0.000245533573 0.00237355  0.00006974  0.0066107 0.0000
  5   -129.8066751724  -0.000046888231 0.00081570  0.00002928  0.0020826 0.0000
  6   -129.8066875129  -0.000012340492 0.00099954  0.00002794  0.0008366 0.0000
               *** Restarting incremental Fock matrix formation ***
                                   *** Resetting DIIS ***
  7   -129.8066995037  -0.000011990858 0.00031338  0.00001098  0.0003150 0.0000
  8   -129.8067006772  -0.000001173451 0.00010850  0.00000390  0.0003056 0.0000
  9   -129.8067009818  -0.000000304674 0.00023096  0.00000747  0.0002404 0.0000
 10   -129.8067014177  -0.000000435866 0.00008550  0.00000279  0.0000259 0.0000
 11   -129.8067014940  -0.000000076307 0.00003010  0.00000100  0.0000065 0.0000
 12   -129.8067015106  -0.000000016596 0.00003178  0.00000105  0.0000037 0.0000
 13   -129.8067015216  -0.000000011001 0.00002477  0.00000083  0.0000019 0.0000
                 **** Energy Check signals convergence ****

               *****************************************************
               *                     SUCCESS                       *
               *           SCF CONVERGED AFTER  14 CYCLES          *
               *****************************************************

Old exchange energy                            =     -3.679942063 Eh
New exchange energy                            =     -3.679941185 Eh
Exchange energy change after final integration =      0.000000878 Eh
Total energy after final integration           =   -129.806700647 Eh
Final COS-X integration done in                =     0.062 sec

----------------
TOTAL SCF ENERGY
----------------

Total Energy       :         -129.80670065 Eh           -3532.21990 eV

Components:
Nuclear Repulsion  :           26.00026889 Eh             707.50329 eV
Electronic Energy  :         -155.80696953 Eh           -4239.72318 eV
One Electron Energy:         -228.39967849 Eh           -6215.07122 eV
Two Electron Energy:           72.59270895 Eh            1975.34804 eV
Max COSX asymmetry :            0.00000013 Eh               0.00000 eV

Virial components:
Potential Energy   :         -259.20007106 Eh           -7053.19251 eV
Kinetic Energy     :          129.39337041 Eh            3520.97261 eV
Virial Ratio       :            2.00319437


DFT components:
N(Alpha)           :        7.999998782257 electrons
N(Beta)            :        6.999999156544 electrons
N(Total)           :       14.999997938801 electrons
E(X)               :      -11.061729733844 Eh       
E(C)               :       -0.492322673495 Eh       
E(XC)              :      -11.554052407339 Eh       
DFET-embed. en.    :        0.000000000000 Eh       

---------------
SCF CONVERGENCE
---------------

  Last Energy change         ...   -3.7582e-09  Tolerance :   1.0000e-08
  Last MAX-Density change    ...    0.0000e+00  Tolerance :   1.0000e-07
  Last RMS-Density change    ...    0.0000e+00  Tolerance :   5.0000e-09
  Last DIIS Error            ...    5.7334e-07  Tolerance :   5.0000e-07

             **** THE GBW FILE WAS UPDATED (nitrogen_monoxide_OPT.gbw) ****
             **** DENSITY nitrogen_monoxide_OPT.scfp WAS UPDATED ****
             **** ENERGY FILE WAS UPDATED (nitrogen_monoxide_OPT.en.tmp) ****
----------------------
UHF SPIN CONTAMINATION
----------------------

Warning: in a DFT calculation there is little theoretical justification to 
         calculate <S**2> as in Hartree-Fock theory. We will do it anyways
         but you should keep in mind that the values have only limited relevance

Expectation value of <S**2>     :     0.753477
Ideal value S*(S+1) for S=0.5   :     0.750000
Deviation                       :     0.003477

             **** THE GBW FILE WAS UPDATED (nitrogen_monoxide_OPT.gbw) ****
             **** DENSITY nitrogen_monoxide_OPT.scfp WAS UPDATED ****
----------------
ORBITAL ENERGIES
----------------
                 SPIN UP ORBITALS
  NO   OCC          E(Eh)            E(eV) 
   0   1.0000     -19.345354      -526.4138 
   1   1.0000     -14.519799      -395.1038 
   2   1.0000      -1.288239       -35.0548 
   3   1.0000      -0.712788       -19.3959 
   4   1.0000      -0.564376       -15.3575 
   5   1.0000      -0.532429       -14.4881 
   6   1.0000      -0.505407       -13.7528 
   7   1.0000      -0.229864        -6.2549 
   8   0.0000      -0.095777        -2.6062 
   9   0.0000       0.194610         5.2956 
  10   0.0000       0.264921         7.2089 
  11   0.0000       0.315293         8.5796 
  12   0.0000       0.320416         8.7190 
  13   0.0000       0.394463        10.7339 
  14   0.0000       0.475085        12.9277 
  15   0.0000       0.483513        13.1570 
  16   0.0000       0.545989        14.8571 
  17   0.0000       0.747648        20.3445 
  18   0.0000       0.926598        25.2140 
  19   0.0000       0.928586        25.2681 
  20   0.0000       1.130122        30.7522 
  21   0.0000       1.133808        30.8525 
  22   0.0000       1.476215        40.1698 
  23   0.0000       1.530657        41.6513 
  24   0.0000       1.531997        41.6878 
  25   0.0000       1.841006        50.0963 
  26   0.0000       1.898813        51.6693 
  27   0.0000       1.914884        52.1066 
  28   0.0000       1.966614        53.5143 
  29   0.0000       2.074640        56.4538 
  30   0.0000       2.081517        56.6410 
  31   0.0000       2.318055        63.0775 
  32   0.0000       2.647720        72.0481 
  33   0.0000       2.655038        72.2473 
  34   0.0000       2.799807        76.1866 
  35   0.0000       3.765250       102.4577 
  36   0.0000       3.765722       102.4705 
  37   0.0000       3.780876       102.8829 
  38   0.0000       3.783680       102.9592 
  39   0.0000       3.784300       102.9760 
  40   0.0000       4.019453       109.3749 
  41   0.0000       4.020255       109.3967 
  42   0.0000       4.373959       119.0215 
  43   0.0000       4.378989       119.1583 
  44   0.0000       4.659743       126.7980 
  45   0.0000       4.718772       128.4043 
  46   0.0000       4.720783       128.4590 
  47   0.0000       5.062993       137.7711 
  48   0.0000       5.063153       137.7754 
  49   0.0000       5.193864       141.3322 
  50   0.0000       5.564401       151.4151 
  51   0.0000       5.565466       151.4440 
  52   0.0000       6.175402       168.0412 
  53   0.0000       6.177428       168.0964 
  54   0.0000       6.409472       174.4106 
  55   0.0000       6.411430       174.4639 
  56   0.0000       6.905751       187.9150 
  57   0.0000       6.909276       188.0109 
  58   0.0000       6.973884       189.7690 
  59   0.0000       7.180198       195.3831 
  60   0.0000      31.662249       861.5736 
  61   0.0000      43.636674      1187.4143 

                 SPIN DOWN ORBITALS
  NO   OCC          E(Eh)            E(eV) 
   0   1.0000     -19.334505      -526.1186 
   1   1.0000     -14.503268      -394.6540 
   2   1.0000      -1.266375       -34.4598 
   3   1.0000      -0.673637       -18.3306 
   4   1.0000      -0.523077       -14.2337 
   5   1.0000      -0.484319       -13.1790 
   6   1.0000      -0.479645       -13.0518 
   7   0.0000      -0.079785        -2.1711 
   8   0.0000      -0.034661        -0.9432 
   9   0.0000       0.201113         5.4726 
  10   0.0000       0.279273         7.5994 
  11   0.0000       0.326061         8.8726 
  12   0.0000       0.345801         9.4097 
  13   0.0000       0.398274        10.8376 
  14   0.0000       0.487635        13.2692 
  15   0.0000       0.503484        13.7005 
  16   0.0000       0.565524        15.3887 
  17   0.0000       0.755520        20.5587 
  18   0.0000       0.956202        26.0196 
  19   0.0000       0.956355        26.0237 
  20   0.0000       1.136601        30.9285 
  21   0.0000       1.165096        31.7039 
  22   0.0000       1.491473        40.5851 
  23   0.0000       1.555950        42.3396 
  24   0.0000       1.556056        42.3424 
  25   0.0000       1.855998        50.5043 
  26   0.0000       1.923470        52.3403 
  27   0.0000       1.955382        53.2087 
  28   0.0000       1.983268        53.9675 
  29   0.0000       2.089388        56.8551 
  30   0.0000       2.120755        57.7087 
  31   0.0000       2.330549        63.4175 
  32   0.0000       2.660954        72.4082 
  33   0.0000       2.691923        73.2510 
  34   0.0000       2.815980        76.6267 
  35   0.0000       3.789311       103.1124 
  36   0.0000       3.789410       103.1151 
  37   0.0000       3.796508       103.3082 
  38   0.0000       3.830358       104.2293 
  39   0.0000       3.830455       104.2320 
  40   0.0000       4.024019       109.4991 
  41   0.0000       4.057189       110.4017 
  42   0.0000       4.439424       120.8029 
  43   0.0000       4.440825       120.8410 
  44   0.0000       4.678067       127.2967 
  45   0.0000       4.725403       128.5847 
  46   0.0000       4.763803       129.6297 
  47   0.0000       5.087405       138.4353 
  48   0.0000       5.087423       138.4358 
  49   0.0000       5.211421       141.8100 
  50   0.0000       5.584287       151.9562 
  51   0.0000       5.584325       151.9572 
  52   0.0000       6.212646       169.0547 
  53   0.0000       6.212783       169.0584 
  54   0.0000       6.415061       174.5627 
  55   0.0000       6.447025       175.4325 
  56   0.0000       6.909084       188.0057 
  57   0.0000       6.940573       188.8626 
  58   0.0000       6.991052       190.2362 
  59   0.0000       7.190407       195.6609 
  60   0.0000      31.677779       861.9962 
  61   0.0000      43.646315      1187.6766 

                    ********************************
                    * MULLIKEN POPULATION ANALYSIS *
                    ********************************

--------------------------------------------
MULLIKEN ATOMIC CHARGES AND SPIN POPULATIONS
--------------------------------------------
   0 N :    0.064054    0.699850
   1 O :   -0.064054    0.300150
Sum of atomic charges         :    0.0000000
Sum of atomic spin populations:    1.0000000

-----------------------------------------------------
MULLIKEN REDUCED ORBITAL CHARGES AND SPIN POPULATIONS
-----------------------------------------------------
CHARGE
  0 N s       :     3.884610  s :     3.884610
      pz      :     0.695989  p :     2.964616
      px      :     0.951557
      py      :     1.317070
      dz2     :     0.003885  d :     0.078192
      dxz     :     0.030591
      dyz     :     0.000000
      dx2y2   :     0.011956
      dxy     :     0.031761
      f0      :     0.000758  f :     0.008527
      f+1     :     0.000560
      f-1     :     0.000080
      f+2     :     0.001979
      f-2     :     0.000000
      f+3     :     0.001573
      f-3     :     0.003576
  1 O s       :     3.860629  s :     3.860629
      pz      :     1.253903  p :     4.146586
      px      :     1.265660
      py      :     1.627023
      dz2     :     0.004391  d :     0.052983
      dxz     :     0.015671
      dyz     :     0.000000
      dx2y2   :     0.013951
      dxy     :     0.018971
      f0      :     0.000300  f :     0.003856
      f+1     :     0.000347
      f-1     :     0.000042
      f+2     :     0.000809
      f-2     :     0.000000
      f+3     :     0.000881
      f-3     :     0.001478

SPIN
  0 N s       :     0.005378  s :     0.005378
      pz      :     0.016549  p :     0.695465
      px      :    -0.002945
      py      :     0.681861
      dz2     :    -0.000750  d :    -0.000432
      dxz     :    -0.000672
      dyz     :     0.000000
      dx2y2   :     0.001513
      dxy     :    -0.000523
      f0      :     0.000208  f :    -0.000561
      f+1     :     0.000032
      f-1     :     0.000122
      f+2     :    -0.000467
      f-2     :     0.000000
      f+3     :    -0.000378
      f-3     :    -0.000076
  1 O s       :     0.007228  s :     0.007228
      pz      :    -0.015359  p :     0.289586
      px      :    -0.010421
      py      :     0.315366
      dz2     :    -0.000259  d :     0.003257
      dxz     :    -0.000216
      dyz     :    -0.000000
      dx2y2   :     0.000698
      dxy     :     0.003034
      f0      :     0.000075  f :     0.000080
      f+1     :     0.000012
      f-1     :     0.000055
      f+2     :    -0.000118
      f-2     :     0.000000
      f+3     :    -0.000107
      f-3     :     0.000163


                     *******************************
                     * LOEWDIN POPULATION ANALYSIS *
                     *******************************

-------------------------------------------
LOEWDIN ATOMIC CHARGES AND SPIN POPULATIONS
-------------------------------------------
   0 N :   -0.105032    0.668285
   1 O :    0.105032    0.331715

----------------------------------------------------
LOEWDIN REDUCED ORBITAL CHARGES AND SPIN POPULATIONS
----------------------------------------------------
CHARGE
  0 N s       :     3.535207  s :     3.535207
      pz      :     0.710874  p :     3.257402
      px      :     1.280871
      py      :     1.265658
      dz2     :     0.026466  d :     0.265719
      dxz     :     0.057603
      dyz     :     0.000000
      dx2y2   :     0.079622
      dxy     :     0.102029
      f0      :     0.003898  f :     0.046703
      f+1     :     0.005356
      f-1     :     0.001160
      f+2     :     0.007110
      f-2     :     0.000000
      f+3     :     0.009681
      f-3     :     0.019498
  1 O s       :     3.511204  s :     3.511204
      pz      :     1.200284  p :     4.236814
      px      :     1.490747
      py      :     1.545782
      dz2     :     0.013718  d :     0.132751
      dxz     :     0.018247
      dyz     :     0.000000
      dx2y2   :     0.042058
      dxy     :     0.058729
      f0      :     0.000663  f :     0.014200
      f+1     :     0.001775
      f-1     :     0.000413
      f+2     :     0.001322
      f-2     :     0.000000
      f+3     :     0.003297
      f-3     :     0.006730

SPIN
  0 N s       :     0.006274  s :     0.006274
      pz      :     0.014446  p :     0.614291
      px      :    -0.006895
      py      :     0.606741
      dz2     :    -0.000633  d :     0.040131
      dxz     :    -0.001487
      dyz     :     0.000000
      dx2y2   :     0.002788
      dxy     :     0.039463
      f0      :     0.000102  f :     0.007589
      f+1     :     0.000109
      f-1     :     0.000614
      f+2     :    -0.000523
      f-2     :     0.000000
      f+3     :    -0.000342
      f-3     :     0.007629
  1 O s       :     0.003104  s :     0.003104
      pz      :    -0.012903  p :     0.278999
      px      :    -0.006104
      py      :     0.298006
      dz2     :     0.000134  d :     0.044233
      dxz     :     0.000325
      dyz     :    -0.000000
      dx2y2   :     0.001538
      dxy     :     0.042237
      f0      :     0.000079  f :     0.005379
      f+1     :     0.000082
      f-1     :     0.000360
      f+2     :    -0.000039
      f-2     :     0.000000
      f+3     :    -0.000055
      f-3     :     0.004951


                      *****************************
                      * MAYER POPULATION ANALYSIS *
                      *****************************

  NA   - Mulliken gross atomic population
  ZA   - Total nuclear charge
  QA   - Mulliken gross atomic charge
  VA   - Mayer's total valence
  BVA  - Mayer's bonded valence
  FA   - Mayer's free valence

  ATOM       NA         ZA         QA         VA         BVA        FA
  0 N      6.9359     7.0000     0.0641     2.6133     2.1264     0.4869
  1 O      8.0641     8.0000    -0.0641     2.2434     2.1264     0.1169

  Mayer bond orders larger than 0.100000
B(  0-N ,  1-O ) :   2.1264 

-------
TIMINGS
-------

Total SCF time: 0 days 0 hours 0 min 1 sec 

Total time                  ....       1.096 sec
Sum of individual times     ....       1.044 sec  ( 95.2%)

Fock matrix formation       ....       0.878 sec  ( 80.1%)
  Split-RI-J                ....       0.124 sec  ( 14.1% of F)
  Chain of spheres X        ....       0.594 sec  ( 67.6% of F)
  XC integration            ....       0.143 sec  ( 16.3% of F)
    Basis function eval.    ....       0.027 sec  ( 19.1% of XC)
    Density eval.           ....       0.033 sec  ( 22.8% of XC)
    XC-Functional eval.     ....       0.014 sec  ( 10.0% of XC)
    XC-Potential eval.      ....       0.045 sec  ( 31.2% of XC)
Diagonalization             ....       0.029 sec  (  2.7%)
Density matrix formation    ....       0.002 sec  (  0.2%)
Population analysis         ....       0.003 sec  (  0.3%)
Initial guess               ....       0.005 sec  (  0.5%)
Orbital Transformation      ....       0.000 sec  (  0.0%)
Orbital Orthonormalization  ....       0.000 sec  (  0.0%)
DIIS solution               ....       0.028 sec  (  2.6%)
Grid generation             ....       0.098 sec  (  9.0%)

Maximum memory used throughout the entire SCF-calculation: 58.2 MB

-------------------------   --------------------
FINAL SINGLE POINT ENERGY      -129.806700647223
-------------------------   --------------------



           ************************************************************
           *        Program running with 6 parallel MPI-processes     *
           *              working on a common directory               *
           ************************************************************
------------------------------------------------------------------------------
                         ORCA SCF GRADIENT CALCULATION
------------------------------------------------------------------------------

 ... reading COSX grid (gridx3)
Gradient of the Kohn-Sham DFT energy:
Kohn-Sham wavefunction type      ... UKS
Hartree-Fock exchange scaling    ...    0.250
Number of operators              ...    2
Number of atoms                  ...    2
Basis set dimensions             ...   62
Integral neglect threshold       ... 2.5e-11
Integral primitive cutoff        ... 2.5e-12
SHARK Integral package           ... ON

Nuc. rep. gradient       (SHARK) ... done (  0.0 sec)
HCore & Overlap gradient (SHARK) ... done (  0.0 sec)
RI-J gradient            (SHARK) ... done (  0.0 sec)
COSX-gradient                    ... done (  0.1 sec)
Exchange-correlation gradient    ... done

------------------
CARTESIAN GRADIENT
------------------

   1   N   :   -0.000015433   -0.000000006   -0.000000008
   2   O   :   -0.000015295   -0.000000008   -0.000000005

Difference to translation invariance:
           :   -0.0000307278   -0.0000000141   -0.0000000131

Difference to rotation invariance:
           :   -0.0000003013   -0.0000006797    0.0007072088

Norm of the cartesian gradient     ...    0.0000217280
RMS gradient                       ...    0.0000088704
MAX gradient                       ...    0.0000154328

-------
TIMINGS
-------

Total SCF gradient time            ...        0.234 sec

One electron gradient       ....       0.002 sec  (  0.8%)
RI-J Coulomb gradient       ....       0.041 sec  ( 17.7%)
COSX gradient               ....       0.079 sec  ( 33.6%)
XC gradient                 ....       0.031 sec  ( 13.2%)

Maximum memory used throughout the entire SCFGRAD-calculation: 33.3 MB
------------------------------------------------------------------------------
                         ORCA GEOMETRY RELAXATION STEP
------------------------------------------------------------------------------

Reading the OPT-File                    .... done
Getting information on internals        .... done
Copying old internal coords+grads       .... done
Making the new internal coordinates     .... (new redundants).... done
Validating the new internal coordinates .... (new redundants).... done
Calculating the B-matrix                .... done
Calculating the G,G- and P matrices     .... done
Transforming gradient to internals      .... done
Projecting the internal gradient        .... done
Number of atoms                         ....   2
Number of internal coordinates          ....   1
Current Energy                          ....  -129.806700647 Eh
Current gradient norm                   ....     0.000021728 Eh/bohr
Maximum allowed component of the step   ....  0.300
Current trust radius                    ....  0.300
Evaluating the initial hessian          ....  (Almloef) done
Projecting the Hessian                  .... done
Forming the augmented Hessian           .... done
Diagonalizing the augmented Hessian     .... done
Last element of RFO vector              ....  1.000000000
Lowest eigenvalues of augmented Hessian:
 -0.000000000
Length of the computed step             ....  0.000000055
The final length of the internal step   ....  0.000000055
Converting the step to cartesian space:
 Initial RMS(Int)=    0.0000000548
Transforming coordinates:
 Iter   0:  RMS(Cart)=    0.0000000158 RMS(Int)=    0.0000000548
done
Storing new coordinates                 .... done

                                .--------------------.
          ----------------------|Geometry convergence|-------------------------
          Item                value                   Tolerance       Converged
          ---------------------------------------------------------------------
          RMS gradient        0.0000000689            0.0000300000      YES
          MAX gradient        0.0000000689            0.0001000000      YES
          RMS step            0.0000000548            0.0006000000      YES
          MAX step            0.0000000548            0.0010000000      YES
          ........................................................
          Max(Bonds)      0.0000      Max(Angles)    0.00
          Max(Dihed)        0.00      Max(Improp)    0.00
          ---------------------------------------------------------------------

                    ***********************HURRAY********************
                    ***        THE OPTIMIZATION HAS CONVERGED     ***
                    *************************************************


    ---------------------------------------------------------------------------
                         Redundant Internal Coordinates

                          --- Optimized Parameters ---  
                            (Angstroem and degrees)

        Definition                    OldVal   dE/dq     Step     FinalVal
    ----------------------------------------------------------------------------
     1. B(O   1,N   0)                1.1398  0.000000 -0.0000    1.1398   
    ----------------------------------------------------------------------------
                 *******************************************************
                 *** FINAL ENERGY EVALUATION AT THE STATIONARY POINT ***
                 ***               (AFTER    1 CYCLES)               ***
                 *******************************************************
---------------------------------
CARTESIAN COORDINATES (ANGSTROEM)
---------------------------------
  N    -27.883207   12.166670    0.000000
  O    -26.743453   12.166670    0.000000

----------------------------
CARTESIAN COORDINATES (A.U.)
----------------------------
  NO LB      ZA    FRAG     MASS         X           Y           Z
   0 N     7.0000    0    14.007  -52.691625   22.991674    0.000000
   1 O     8.0000    0    15.999  -50.537802   22.991674    0.000000

--------------------------------
INTERNAL COORDINATES (ANGSTROEM)
--------------------------------
 N      0   0   0     0.000000000000     0.00000000     0.00000000
 O      1   0   0     1.139754478674     0.00000000     0.00000000

---------------------------
INTERNAL COORDINATES (A.U.)
---------------------------
 N      0   0   0     0.000000000000     0.00000000     0.00000000
 O      1   0   0     2.153823824603     0.00000000     0.00000000

---------------------
BASIS SET INFORMATION
---------------------
There are 2 groups of distinct atoms

 Group   1 Type N   : 11s6p2d1f contracted to 5s3p2d1f pattern {62111/411/11/1}
 Group   2 Type O   : 11s6p2d1f contracted to 5s3p2d1f pattern {62111/411/11/1}

Atom   0N    basis set group =>   1
Atom   1O    basis set group =>   2
---------------------------------
AUXILIARY/J BASIS SET INFORMATION
---------------------------------
There are 2 groups of distinct atoms

 Group   1 Type N   : 12s5p4d2f1g contracted to 6s4p3d1f1g pattern {711111/2111/211/2/1}
 Group   2 Type O   : 12s5p4d2f1g contracted to 6s4p3d1f1g pattern {711111/2111/211/2/1}

Atom   0N    basis set group =>   1
Atom   1O    basis set group =>   2


           ************************************************************
           *        Program running with 6 parallel MPI-processes     *
           *              working on a common directory               *
           ************************************************************
------------------------------------------------------------------------------
                           ORCA GTO INTEGRAL CALCULATION
                           -- RI-GTO INTEGRALS CHOSEN --
------------------------------------------------------------------------------
------------------------------------------------------------------------------
                   ___                                                        
                  /   \      - P O W E R E D   B Y -                         
                 /     \                                                     
                 |  |  |   _    _      __       _____    __    __             
                 |  |  |  | |  | |    /  \     |  _  \  |  |  /  |          
                  \  \/   | |  | |   /    \    | | | |  |  | /  /          
                 / \  \   | |__| |  /  /\  \   | |_| |  |  |/  /          
                |  |  |   |  __  | /  /__\  \  |    /   |      \           
                |  |  |   | |  | | |   __   |  |    \   |  |\   \          
                \     /   | |  | | |  |  |  |  | |\  \  |  | \   \       
                 \___/    |_|  |_| |__|  |__|  |_| \__\ |__|  \__/        
                                                                              
                      - O R C A' S   B I G   F R I E N D -                    
                                      &                                       
                       - I N T E G R A L  F E E D E R -                       
                                                                              
 v1 FN, 2020, v2 2021                                                         
------------------------------------------------------------------------------


Reading SHARK input file nitrogen_monoxide_OPT.SHARKINP.tmp ... ok
----------------------
SHARK INTEGRAL PACKAGE
----------------------

Number of atoms                             ...      2
Number of basis functions                   ...     62
Number of shells                            ...     22
Maximum angular momentum                    ...      3
Integral batch strategy                     ... SHARK/LIBINT Hybrid
RI-J (if used) integral strategy            ... SPLIT-RIJ (Revised 2003 algorithm where possible)
Printlevel                                  ...      1
Contraction scheme used                     ... SEGMENTED contraction
Coulomb Range Separation                    ... NOT USED
Exchange Range Separation                   ... NOT USED
Finite Nucleus Model                        ... NOT USED
Auxiliary Coulomb fitting basis             ... AVAILABLE
   # of basis functions in Aux-J            ...     98
   # of shells in Aux-J                     ...     30
   Maximum angular momentum in Aux-J        ...      4
Auxiliary J/K fitting basis                 ... NOT available
Auxiliary Correlation fitting basis         ... NOT available
Auxiliary 'external' fitting basis          ... NOT available
Integral threshold                          ...     2.500000e-11
Primitive cut-off                           ...     2.500000e-12
Primitive pair pre-selection threshold      ...     2.500000e-12

Calculating pre-screening integrals         ... done (  0.0 sec) Dimension = 22
Organizing shell pair data                  ... done (  0.0 sec)
Shell pair information
Total number of shell pairs                 ...       253
Shell pairs after pre-screening             ...       252
Total number of primitive shell pairs       ...       864
Primitive shell pairs kept                  ...       787
          la=0 lb=0:     54 shell pairs
          la=1 lb=0:     60 shell pairs
          la=1 lb=1:     21 shell pairs
          la=2 lb=0:     40 shell pairs
          la=2 lb=1:     24 shell pairs
          la=2 lb=2:     10 shell pairs
          la=3 lb=0:     20 shell pairs
          la=3 lb=1:     12 shell pairs
          la=3 lb=2:      8 shell pairs
          la=3 lb=3:      3 shell pairs

Calculating one electron integrals          ... done (  0.0 sec)
Calculating RI/J V-Matrix + Cholesky decomp.... done (  0.0 sec)
Calculating Nuclear repulsion               ... done (  0.0 sec) ENN=     26.000269548653 Eh

SHARK setup successfully completed in   0.1 seconds

Maximum memory used throughout the entire GTOINT-calculation: 13.7 MB


           ************************************************************
           *        Program running with 6 parallel MPI-processes     *
           *              working on a common directory               *
           ************************************************************
-------------------------------------------------------------------------------
                                 ORCA SCF
-------------------------------------------------------------------------------

------------
SCF SETTINGS
------------
Hamiltonian:
 Density Functional     Method          .... DFT(GTOs)
 Exchange Functional    Exchange        .... PBE
   PBE kappa parameter   XKappa         ....  0.804000
   PBE mue parameter    XMuePBE         ....  0.219520
 Correlation Functional Correlation     .... PBE
   PBE beta parameter  CBetaPBE         ....  0.066725
 LDA part of GGA corr.  LDAOpt          .... PW91-LDA
 Gradients option       PostSCFGGA      .... off
 Hybrid DFT is turned on
   Fraction HF Exchange ScalHFX         ....  0.250000
   Scaling of DF-GGA-X  ScalDFX         ....  0.750000
   Scaling of DF-GGA-C  ScalDFC         ....  1.000000
   Scaling of DF-LDA-C  ScalLDAC        ....  1.000000
   Perturbative correction              ....  0.000000
   Density functional embedding theory  .... OFF
   NL short-range parameter             ....  6.900000
 RI-approximation to the Coulomb term is turned on
   Number of AuxJ basis functions       .... 98
   RIJ-COSX (HFX calculated with COS-X)).... on


General Settings:
 Integral files         IntName         .... nitrogen_monoxide_OPT
 Hartree-Fock type      HFTyp           .... UHF
 Total Charge           Charge          ....    0
 Multiplicity           Mult            ....    2
 Number of Electrons    NEL             ....   15
 Basis Dimension        Dim             ....   62
 Nuclear Repulsion      ENuc            ....     26.0002695487 Eh

Convergence Acceleration:
 DIIS                   CNVDIIS         .... on
   Start iteration      DIISMaxIt       ....    12
   Startup error        DIISStart       ....  0.200000
   # of expansion vecs  DIISMaxEq       ....     5
   Bias factor          DIISBfac        ....   1.050
   Max. coefficient     DIISMaxC        ....  10.000
 Trust-Rad. Augm. Hess. CNVTRAH         .... auto
   Auto Start mean grad. ratio tolernc. ....  1.125000
   Auto Start start iteration           ....     1
   Auto Start num. interpolation iter.  ....    10
   Max. Number of Micro iterations      ....    16
   Max. Number of Macro iterations      .... Maxiter - #DIIS iter
   Number of Davidson start vectors     ....     2
   Converg. threshold I  (grad. norm)   ....   1.000e-05
   Converg. threshold II (energy diff.) ....   1.000e-08
   Grad. Scal. Fac. for Micro threshold ....   0.100
   Minimum threshold for Micro iter.    ....   0.010
   NR start threshold (gradient norm)   ....   0.001
   Initial trust radius                 ....   0.400
   Minimum AH scaling param. (alpha)    ....   1.000
   Maximum AH scaling param. (alpha)    .... 1000.000
   Orbital update algorithm             .... Taylor
   White noise on init. David. guess    .... on
   Maximum white noise                  ....   0.010
   Quad. conv. algorithm                .... NR
 SOSCF                  CNVSOSCF        .... off
 Level Shifting         CNVShift        .... on
   Level shift para.    LevelShift      ....    0.2500
   Turn off err/grad.   ShiftErr        ....    0.0010
 Zerner damping         CNVZerner       .... off
 Static damping         CNVDamp         .... on
   Fraction old density DampFac         ....    0.7000
   Max. Damping (<1)    DampMax         ....    0.9800
   Min. Damping (>=0)   DampMin         ....    0.0000
   Turn off err/grad.   DampErr         ....    0.1000
 Fernandez-Rico         CNVRico         .... off

SCF Procedure:
 Maximum # iterations   MaxIter         ....   125
 SCF integral mode      SCFMode         .... Direct
   Integral package                     .... SHARK and LIBINT hybrid scheme
 Reset frequency        DirectResetFreq ....    20
 Integral Threshold     Thresh          ....  2.500e-11 Eh
 Primitive CutOff       TCut            ....  2.500e-12 Eh

Convergence Tolerance:
 Convergence Check Mode ConvCheckMode   .... Total+1el-Energy
 Convergence forced     ConvForced      .... 0
 Energy Change          TolE            ....  1.000e-08 Eh
 1-El. energy change                    ....  1.000e-05 Eh
 DIIS Error             TolErr          ....  5.000e-07


Diagonalization of the overlap matrix:
Smallest eigenvalue                        ... 1.010e-03
Time for diagonalization                   ...    0.000 sec
Threshold for overlap eigenvalues          ... 1.000e-08
Number of eigenvalues below threshold      ... 0
Time for construction of square roots      ...    0.001 sec
Total time needed                          ...    0.001 sec

---------------------
INITIAL GUESS: MOREAD
---------------------
Guess MOs are being read from file: nitrogen_monoxide_OPT.gbw
Input Geometry matches current geometry (good)
Input basis set matches current basis set (good)
MOs were renormalized
MOs were reorthogonalized (Cholesky)
                      ------------------
                      INITIAL GUESS DONE (   0.0 sec)
                      ------------------
-------------------
DFT GRID GENERATION
-------------------

General Integration Accuracy     IntAcc      ... 4.388
Radial Grid Type                 RadialGrid  ... OptM3 with GC (2021)
Angular Grid (max. ang.)         AngularGrid ... 4 (Lebedev-302)
Angular grid pruning method      GridPruning ... 4 (adaptive)
Weight generation scheme         WeightScheme... Becke
Basis function cutoff            BFCut       ... 1.0000e-11
Integration weight cutoff        WCut        ... 1.0000e-14
Angular grids for H and He will be reduced by one unit
Partially contracted basis set               ... off
Rotationally invariant grid construction     ... off

Total number of grid points                  ...    12257
Total number of batches                      ...      192
Average number of points per batch           ...       63
Average number of grid points per atom       ...     6128
Time for grid setup =    0.067 sec

--------------------
COSX GRID GENERATION
--------------------

GRIDX 1
-------
General Integration Accuracy     IntAcc      ... 3.816
Radial Grid Type                 RadialGrid  ... OptM3 with GC (2021)
Angular Grid (max. ang.)         AngularGrid ... 1 (Lebedev-50)
Angular grid pruning method      GridPruning ... 4 (adaptive)
Weight generation scheme         WeightScheme... Becke
Basis function cutoff            BFCut       ... 1.0000e-11
Integration weight cutoff        WCut        ... 1.0000e-14
Angular grids for H and He will be reduced by one unit
Partially contracted basis set               ... on
Rotationally invariant grid construction     ... off

Total number of grid points                  ...     1533
Total number of batches                      ...       25
Average number of points per batch           ...       61
Average number of grid points per atom       ...      766
UseSFitting                                  ... on

GRIDX 2
-------
General Integration Accuracy     IntAcc      ... 4.020
Radial Grid Type                 RadialGrid  ... OptM3 with GC (2021)
Angular Grid (max. ang.)         AngularGrid ... 2 (Lebedev-110)
Angular grid pruning method      GridPruning ... 4 (adaptive)
Weight generation scheme         WeightScheme... Becke
Basis function cutoff            BFCut       ... 1.0000e-11
Integration weight cutoff        WCut        ... 1.0000e-14
Angular grids for H and He will be reduced by one unit
Partially contracted basis set               ... on
Rotationally invariant grid construction     ... off

Total number of grid points                  ...     3763
Total number of batches                      ...       59
Average number of points per batch           ...       63
Average number of grid points per atom       ...     1882
UseSFitting                                  ... on

GRIDX 3
-------
General Integration Accuracy     IntAcc      ... 4.338
Radial Grid Type                 RadialGrid  ... OptM3 with GC (2021)
Angular Grid (max. ang.)         AngularGrid ... 3 (Lebedev-194)
Angular grid pruning method      GridPruning ... 4 (adaptive)
Weight generation scheme         WeightScheme... Becke
Basis function cutoff            BFCut       ... 1.0000e-11
Integration weight cutoff        WCut        ... 1.0000e-14
Angular grids for H and He will be reduced by one unit
Partially contracted basis set               ... on
Rotationally invariant grid construction     ... off

Total number of grid points                  ...     8421
Total number of batches                      ...      132
Average number of points per batch           ...       63
Average number of grid points per atom       ...     4210
UseSFitting                                  ... on

Time for X-Grid setup             =    0.054 sec

--------------
SCF ITERATIONS
--------------
ITER       Energy         Delta-E        Max-DP      RMS-DP      [F,P]     Damp
               ***  Starting incremental Fock matrix formation  ***
  0   -129.8067015251   0.000000000000 0.00000078  0.00000003  0.0000006 0.7000
                 **** Energy Check signals convergence ****

               *****************************************************
               *                     SUCCESS                       *
               *           SCF CONVERGED AFTER   1 CYCLES          *
               *****************************************************

Old exchange energy                            =     -3.679942083 Eh
New exchange energy                            =     -3.679941212 Eh
Exchange energy change after final integration =      0.000000872 Eh
Total energy after final integration           =   -129.806700653 Eh
Final COS-X integration done in                =     0.085 sec

----------------
TOTAL SCF ENERGY
----------------

Total Energy       :         -129.80670065 Eh           -3532.21990 eV

Components:
Nuclear Repulsion  :           26.00026955 Eh             707.50330 eV
Electronic Energy  :         -155.80697020 Eh           -4239.72320 eV
One Electron Energy:         -228.39967905 Eh           -6215.07124 eV
Two Electron Energy:           72.59270885 Eh            1975.34803 eV
Max COSX asymmetry :            0.00000013 Eh               0.00000 eV

Virial components:
Potential Energy   :         -259.20007000 Eh           -7053.19248 eV
Kinetic Energy     :          129.39336934 Eh            3520.97258 eV
Virial Ratio       :            2.00319438


DFT components:
N(Alpha)           :        7.999998782256 electrons
N(Beta)            :        6.999999156540 electrons
N(Total)           :       14.999997938796 electrons
E(X)               :      -11.061729744096 Eh       
E(C)               :       -0.492322667480 Eh       
E(XC)              :      -11.554052411575 Eh       
DFET-embed. en.    :        0.000000000000 Eh       

---------------
SCF CONVERGENCE
---------------

  Last Energy change         ...    6.0749e-10  Tolerance :   1.0000e-08
  Last MAX-Density change    ...    1.9838e-07  Tolerance :   1.0000e-07
  Last RMS-Density change    ...    6.2962e-09  Tolerance :   5.0000e-09
  Last DIIS Error            ...    4.1509e-07  Tolerance :   5.0000e-07

             **** THE GBW FILE WAS UPDATED (nitrogen_monoxide_OPT.gbw) ****
             **** DENSITY nitrogen_monoxide_OPT.scfp WAS UPDATED ****
             **** ENERGY FILE WAS UPDATED (nitrogen_monoxide_OPT.en.tmp) ****
----------------------
UHF SPIN CONTAMINATION
----------------------

Warning: in a DFT calculation there is little theoretical justification to 
         calculate <S**2> as in Hartree-Fock theory. We will do it anyways
         but you should keep in mind that the values have only limited relevance

Expectation value of <S**2>     :     0.753477
Ideal value S*(S+1) for S=0.5   :     0.750000
Deviation                       :     0.003477

             **** THE GBW FILE WAS UPDATED (nitrogen_monoxide_OPT.gbw) ****
             **** DENSITY nitrogen_monoxide_OPT.scfp WAS UPDATED ****
----------------
ORBITAL ENERGIES
----------------
                 SPIN UP ORBITALS
  NO   OCC          E(Eh)            E(eV) 
   0   1.0000     -19.345353      -526.4138 
   1   1.0000     -14.519799      -395.1038 
   2   1.0000      -1.288238       -35.0547 
   3   1.0000      -0.712787       -19.3959 
   4   1.0000      -0.564376       -15.3574 
   5   1.0000      -0.532427       -14.4881 
   6   1.0000      -0.505407       -13.7528 
   7   1.0000      -0.229863        -6.2549 
   8   0.0000      -0.095777        -2.6062 
   9   0.0000       0.194610         5.2956 
  10   0.0000       0.264921         7.2089 
  11   0.0000       0.315293         8.5796 
  12   0.0000       0.320415         8.7189 
  13   0.0000       0.394463        10.7339 
  14   0.0000       0.475086        12.9277 
  15   0.0000       0.483513        13.1571 
  16   0.0000       0.545989        14.8571 
  17   0.0000       0.747648        20.3445 
  18   0.0000       0.926598        25.2140 
  19   0.0000       0.928585        25.2681 
  20   0.0000       1.130122        30.7522 
  21   0.0000       1.133807        30.8525 
  22   0.0000       1.476215        40.1699 
  23   0.0000       1.530658        41.6513 
  24   0.0000       1.531998        41.6878 
  25   0.0000       1.841006        50.0963 
  26   0.0000       1.898813        51.6693 
  27   0.0000       1.914883        52.1066 
  28   0.0000       1.966615        53.5143 
  29   0.0000       2.074640        56.4538 
  30   0.0000       2.081517        56.6410 
  31   0.0000       2.318055        63.0775 
  32   0.0000       2.647720        72.0481 
  33   0.0000       2.655040        72.2473 
  34   0.0000       2.799808        76.1866 
  35   0.0000       3.765250       102.4577 
  36   0.0000       3.765722       102.4705 
  37   0.0000       3.780876       102.8829 
  38   0.0000       3.783679       102.9591 
  39   0.0000       3.784299       102.9760 
  40   0.0000       4.019453       109.3749 
  41   0.0000       4.020256       109.3967 
  42   0.0000       4.373958       119.0214 
  43   0.0000       4.378987       119.1583 
  44   0.0000       4.659743       126.7980 
  45   0.0000       4.718772       128.4043 
  46   0.0000       4.720782       128.4590 
  47   0.0000       5.062995       137.7711 
  48   0.0000       5.063154       137.7754 
  49   0.0000       5.193864       141.3322 
  50   0.0000       5.564402       151.4151 
  51   0.0000       5.565467       151.4441 
  52   0.0000       6.175404       168.0413 
  53   0.0000       6.177430       168.0964 
  54   0.0000       6.409473       174.4106 
  55   0.0000       6.411432       174.4639 
  56   0.0000       6.905752       187.9151 
  57   0.0000       6.909276       188.0110 
  58   0.0000       6.973884       189.7690 
  59   0.0000       7.180198       195.3831 
  60   0.0000      31.662250       861.5736 
  61   0.0000      43.636675      1187.4143 

                 SPIN DOWN ORBITALS
  NO   OCC          E(Eh)            E(eV) 
   0   1.0000     -19.334505      -526.1186 
   1   1.0000     -14.503267      -394.6539 
   2   1.0000      -1.266375       -34.4598 
   3   1.0000      -0.673636       -18.3306 
   4   1.0000      -0.523078       -14.2337 
   5   1.0000      -0.484318       -13.1790 
   6   1.0000      -0.479645       -13.0518 
   7   0.0000      -0.079784        -2.1710 
   8   0.0000      -0.034660        -0.9431 
   9   0.0000       0.201113         5.4726 
  10   0.0000       0.279274         7.5994 
  11   0.0000       0.326062         8.8726 
  12   0.0000       0.345802         9.4097 
  13   0.0000       0.398274        10.8376 
  14   0.0000       0.487635        13.2692 
  15   0.0000       0.503484        13.7005 
  16   0.0000       0.565524        15.3887 
  17   0.0000       0.755520        20.5587 
  18   0.0000       0.956203        26.0196 
  19   0.0000       0.956356        26.0238 
  20   0.0000       1.136601        30.9285 
  21   0.0000       1.165097        31.7039 
  22   0.0000       1.491474        40.5851 
  23   0.0000       1.555950        42.3395 
  24   0.0000       1.556055        42.3424 
  25   0.0000       1.855999        50.5043 
  26   0.0000       1.923471        52.3403 
  27   0.0000       1.955383        53.2087 
  28   0.0000       1.983268        53.9675 
  29   0.0000       2.089389        56.8552 
  30   0.0000       2.120756        57.7087 
  31   0.0000       2.330550        63.4175 
  32   0.0000       2.660952        72.4082 
  33   0.0000       2.691923        73.2510 
  34   0.0000       2.815980        76.6267 
  35   0.0000       3.789312       103.1124 
  36   0.0000       3.789411       103.1151 
  37   0.0000       3.796508       103.3082 
  38   0.0000       3.830360       104.2294 
  39   0.0000       3.830457       104.2320 
  40   0.0000       4.024020       109.4991 
  41   0.0000       4.057190       110.4017 
  42   0.0000       4.439427       120.8029 
  43   0.0000       4.440827       120.8411 
  44   0.0000       4.678067       127.2967 
  45   0.0000       4.725404       128.5848 
  46   0.0000       4.763804       129.6297 
  47   0.0000       5.087403       138.4353 
  48   0.0000       5.087421       138.4358 
  49   0.0000       5.211421       141.8100 
  50   0.0000       5.584287       151.9562 
  51   0.0000       5.584325       151.9572 
  52   0.0000       6.212645       169.0547 
  53   0.0000       6.212781       169.0584 
  54   0.0000       6.415060       174.5627 
  55   0.0000       6.447025       175.4325 
  56   0.0000       6.909084       188.0057 
  57   0.0000       6.940573       188.8626 
  58   0.0000       6.991052       190.2362 
  59   0.0000       7.190406       195.6609 
  60   0.0000      31.677781       861.9962 
  61   0.0000      43.646315      1187.6766 

                    ********************************
                    * MULLIKEN POPULATION ANALYSIS *
                    ********************************

--------------------------------------------
MULLIKEN ATOMIC CHARGES AND SPIN POPULATIONS
--------------------------------------------
   0 N :    0.064056    0.699864
   1 O :   -0.064056    0.300136
Sum of atomic charges         :   -0.0000000
Sum of atomic spin populations:    1.0000000

-----------------------------------------------------
MULLIKEN REDUCED ORBITAL CHARGES AND SPIN POPULATIONS
-----------------------------------------------------
CHARGE
  0 N s       :     3.884610  s :     3.884610
      pz      :     0.695989  p :     2.964615
      px      :     0.951556
      py      :     1.317069
      dz2     :     0.003885  d :     0.078192
      dxz     :     0.030591
      dyz     :     0.000000
      dx2y2   :     0.011956
      dxy     :     0.031760
      f0      :     0.000758  f :     0.008527
      f+1     :     0.000560
      f-1     :     0.000080
      f+2     :     0.001979
      f-2     :     0.000000
      f+3     :     0.001573
      f-3     :     0.003576
  1 O s       :     3.860629  s :     3.860629
      pz      :     1.253903  p :     4.146587
      px      :     1.265660
      py      :     1.627023
      dz2     :     0.004391  d :     0.052983
      dxz     :     0.015671
      dyz     :     0.000000
      dx2y2   :     0.013951
      dxy     :     0.018971
      f0      :     0.000300  f :     0.003856
      f+1     :     0.000347
      f-1     :     0.000042
      f+2     :     0.000809
      f-2     :     0.000000
      f+3     :     0.000881
      f-3     :     0.001478

SPIN
  0 N s       :     0.005379  s :     0.005379
      pz      :     0.016561  p :     0.695478
      px      :    -0.002944
      py      :     0.681861
      dz2     :    -0.000750  d :    -0.000432
      dxz     :    -0.000672
      dyz     :    -0.000000
      dx2y2   :     0.001513
      dxy     :    -0.000523
      f0      :     0.000208  f :    -0.000561
      f+1     :     0.000032
      f-1     :     0.000122
      f+2     :    -0.000467
      f-2     :     0.000000
      f+3     :    -0.000378
      f-3     :    -0.000076
  1 O s       :     0.007227  s :     0.007227
      pz      :    -0.015371  p :     0.289573
      px      :    -0.010422
      py      :     0.315365
      dz2     :    -0.000260  d :     0.003257
      dxz     :    -0.000216
      dyz     :    -0.000000
      dx2y2   :     0.000698
      dxy     :     0.003034
      f0      :     0.000075  f :     0.000080
      f+1     :     0.000012
      f-1     :     0.000055
      f+2     :    -0.000118
      f-2     :     0.000000
      f+3     :    -0.000107
      f-3     :     0.000163


                     *******************************
                     * LOEWDIN POPULATION ANALYSIS *
                     *******************************

-------------------------------------------
LOEWDIN ATOMIC CHARGES AND SPIN POPULATIONS
-------------------------------------------
   0 N :   -0.105031    0.668296
   1 O :    0.105031    0.331704

----------------------------------------------------
LOEWDIN REDUCED ORBITAL CHARGES AND SPIN POPULATIONS
----------------------------------------------------
CHARGE
  0 N s       :     3.535207  s :     3.535207
      pz      :     0.710873  p :     3.257401
      px      :     1.280871
      py      :     1.265657
      dz2     :     0.026466  d :     0.265719
      dxz     :     0.057603
      dyz     :     0.000000
      dx2y2   :     0.079622
      dxy     :     0.102029
      f0      :     0.003898  f :     0.046703
      f+1     :     0.005356
      f-1     :     0.001160
      f+2     :     0.007110
      f-2     :     0.000000
      f+3     :     0.009681
      f-3     :     0.019499
  1 O s       :     3.511204  s :     3.511204
      pz      :     1.200285  p :     4.236814
      px      :     1.490747
      py      :     1.545783
      dz2     :     0.013718  d :     0.132751
      dxz     :     0.018247
      dyz     :     0.000000
      dx2y2   :     0.042058
      dxy     :     0.058729
      f0      :     0.000663  f :     0.014200
      f+1     :     0.001775
      f-1     :     0.000413
      f+2     :     0.001322
      f-2     :     0.000000
      f+3     :     0.003297
      f-3     :     0.006730

SPIN
  0 N s       :     0.006274  s :     0.006274
      pz      :     0.014456  p :     0.614303
      px      :    -0.006895
      py      :     0.606741
      dz2     :    -0.000633  d :     0.040130
      dxz     :    -0.001488
      dyz     :    -0.000000
      dx2y2   :     0.002788
      dxy     :     0.039463
      f0      :     0.000102  f :     0.007589
      f+1     :     0.000109
      f-1     :     0.000614
      f+2     :    -0.000523
      f-2     :     0.000000
      f+3     :    -0.000342
      f-3     :     0.007629
  1 O s       :     0.003104  s :     0.003104
      pz      :    -0.012913  p :     0.278987
      px      :    -0.006105
      py      :     0.298005
      dz2     :     0.000134  d :     0.044234
      dxz     :     0.000325
      dyz     :    -0.000000
      dx2y2   :     0.001538
      dxy     :     0.042237
      f0      :     0.000079  f :     0.005379
      f+1     :     0.000082
      f-1     :     0.000360
      f+2     :    -0.000039
      f-2     :     0.000000
      f+3     :    -0.000055
      f-3     :     0.004951


                      *****************************
                      * MAYER POPULATION ANALYSIS *
                      *****************************

  NA   - Mulliken gross atomic population
  ZA   - Total nuclear charge
  QA   - Mulliken gross atomic charge
  VA   - Mayer's total valence
  BVA  - Mayer's bonded valence
  FA   - Mayer's free valence

  ATOM       NA         ZA         QA         VA         BVA        FA
  0 N      6.9359     7.0000     0.0641     2.6133     2.1264     0.4869
  1 O      8.0641     8.0000    -0.0641     2.2434     2.1264     0.1169

  Mayer bond orders larger than 0.100000
B(  0-N ,  1-O ) :   2.1264 

-------
TIMINGS
-------

Total SCF time: 0 days 0 hours 0 min 0 sec 

Total time                  ....       0.583 sec
Sum of individual times     ....       0.514 sec  ( 88.2%)

Fock matrix formation       ....       0.361 sec  ( 61.9%)
  Split-RI-J                ....       0.127 sec  ( 35.3% of F)
  Chain of spheres X        ....       0.192 sec  ( 53.2% of F)
  XC integration            ....       0.039 sec  ( 10.8% of F)
    Basis function eval.    ....       0.005 sec  ( 13.2% of XC)
    Density eval.           ....       0.006 sec  ( 16.0% of XC)
    XC-Functional eval.     ....       0.003 sec  (  6.5% of XC)
    XC-Potential eval.      ....       0.008 sec  ( 19.4% of XC)
Diagonalization             ....       0.008 sec  (  1.4%)
Density matrix formation    ....       0.000 sec  (  0.1%)
Population analysis         ....       0.014 sec  (  2.5%)
Initial guess               ....       0.002 sec  (  0.3%)
Orbital Transformation      ....       0.000 sec  (  0.0%)
Orbital Orthonormalization  ....       0.000 sec  (  0.1%)
DIIS solution               ....       0.008 sec  (  1.3%)
Grid generation             ....       0.121 sec  ( 20.7%)

Maximum memory used throughout the entire SCF-calculation: 58.2 MB

-------------------------   --------------------
FINAL SINGLE POINT ENERGY      -129.806700652921
-------------------------   --------------------

                                *** OPTIMIZATION RUN DONE ***

                            ***************************************
                            *     ORCA property calculations      *
                            ***************************************

                                    ---------------------
                                    Active property flags
                                    ---------------------
   (+) Dipole Moment


------------------------------------------------------------------------------
                       ORCA ELECTRIC PROPERTIES CALCULATION
------------------------------------------------------------------------------

Dipole Moment Calculation                       ... on
Quadrupole Moment Calculation                   ... off
Polarizability Calculation                      ... off
GBWName                                         ... nitrogen_monoxide_OPT.gbw
Electron density                                ... nitrogen_monoxide_OPT.scfp
The origin for moment calculation is the CENTER OF MASS  = (-51.543221, 22.991674  0.000000)

-------------
DIPOLE MOMENT
-------------
                                X             Y             Z
Electronic contribution:      0.05061      -0.00000      -0.00000
Nuclear contribution   :      0.00452       0.00000       0.00000
                        -----------------------------------------
Total Dipole Moment    :      0.05513      -0.00000      -0.00000
                        -----------------------------------------
Magnitude (a.u.)       :      0.05513
Magnitude (Debye)      :      0.14014



--------------------
Rotational spectrum 
--------------------
 
Rotational constants in cm-1:     0.000000     1.737578     1.737578 
Rotational constants in MHz :     0.000000 52091.291729 52091.291729 

 Dipole components along the rotational axes: 
x,y,z [a.u.] :    -0.055134    -0.000000    -0.000000 
x,y,z [Debye]:    -0.140139    -0.000000    -0.000000 

 


           ************************************************************
           *        Program running with 6 parallel MPI-processes     *
           *              working on a common directory               *
           ************************************************************

-------------------------------------------------------------------------------
                               ORCA SCF HESSIAN
-------------------------------------------------------------------------------

Hessian of the Kohn-Sham DFT energy:
Kohn-Sham wavefunction type                      ... UKS
Hartree-Fock exchange scaling                    ...    0.250
Number of operators                              ...    2
Number of atoms                                  ...    2
Basis set dimensions                             ...   62
Integral neglect threshold                       ... 2.5e-11
Integral primitive cutoff                        ... 2.5e-12

Setting up DFT Hessian calculations              ... 

HESS GRID
---------

General Integration Accuracy     IntAcc      ... 4.629
Radial Grid Type                 RadialGrid  ... OptM3 with GC (2021)
Angular Grid (max. ang.)         AngularGrid ... 5 (Lebedev-434)
Angular grid pruning method      GridPruning ... 4 (adaptive)
Weight generation scheme         WeightScheme... Becke
Basis function cutoff            BFCut       ... 1.0000e-11
Integration weight cutoff        WCut        ... 1.0000e-14
Angular grids for H and He will be reduced by one unit
Partially contracted basis set               ... off
Rotationally invariant grid construction     ... off

Total number of grid points                  ...    19219
Total number of batches                      ...      301
Average number of points per batch           ...       63
Average number of grid points per atom       ...     9610

Building densities                               ... done   (      0.0 sec)
Calculating rho(r) on the grid                   ... done   (      0.0 sec)
Building xc-kernel on the grid                   ... done   (      0.0 sec)
                                                     done   (      0.1 sec)

Nuclear repulsion Hessian  (SHARK)               ... done   (      0.0 sec)

----------------------------------------------
Forming right-hand sides of CP-SCF equations     ...
----------------------------------------------
One electron integral derivatives  (SHARK)       ... done   (      0.0 sec)
Transforming the overlap derivative matrices     ... done   (      0.0 sec)
Making the Q(x) pseudodensities                  ... done   (      0.0 sec)
Adding the E*S(x)*S(y) terms to the Hessian      ... done   (      0.0 sec)
Calculating energy weighted overlap derivatives  ... done   (      0.0 sec)
Two electron integral derivatives (SHARK-RI)     ... done   (      0.3 sec)
Exchange-correlation integral derivatives        ... done   (      0.5 sec)
tr(F(y)Q(x)) contribution to the Hessian         ... done   (      0.0 sec)
Response fock operator R(S(x)) (SHARK-RIJCOSX)   ... done   (      0.2 sec)
XC Response fock operator R(S(x))                ... done   (      0.1 sec)
tr(F(y)S(x)) contribution to the Hessian         ... done   (      0.0 sec)
Transforming and finalizing RHSs                 ... done   (      0.0 sec)

----------------------------------------------
Solving the CP-SCF equations (RIJCOSX)           ...
----------------------------------------------
     CP-SCF ITERATION   0:   3.2703e-01 (   0.2 sec   0/  6 done)
     CP-SCF ITERATION   1:   9.3026e-02 (   0.2 sec   0/  6 done)
     CP-SCF ITERATION   2:   1.3921e-02 (   0.2 sec   0/  6 done)
     CP-SCF ITERATION   3:   5.2112e-03 (   0.1 sec   0/  6 done)
     CP-SCF ITERATION   4:   2.5336e-03 (   0.2 sec   2/  6 done)
     CP-SCF ITERATION   5:   9.1006e-04 (   0.1 sec   4/  6 done)
     CP-SCF ITERATION   6:   2.1875e-04 (   0.1 sec   4/  6 done)
     CP-SCF ITERATION   7:   4.1858e-05 (   0.1 sec   6/  6 done)
                    *** THE CP-SCF HAS CONVERGED ***

                                                 ... done   (      1.1 sec)
Forming perturbed density Hessian contributions  ... done   (      0.0 sec)
2nd integral derivative contribs (SHARK-RI)      ... done   (      0.9 sec)
Exchange-correlation Hessian                     ... done   (      0.4 sec)
Dipole derivatives                               ... done   (      0.1 sec)

Total SCF Hessian time: 0 days 0 hours 0 min 4 sec 

Writing the Hessian file to the disk             ... done


Maximum memory used throughout the entire SCFHESS-calculation: 66.8 MB
Warning: T+R mode no 3 is zero 

-----------------------
VIBRATIONAL FREQUENCIES
-----------------------

Scaling factor for frequencies =  1.000000000  (already applied!)

   0:         0.00 cm**-1
   1:         0.00 cm**-1
   2:         0.00 cm**-1
   3:         0.00 cm**-1
   4:         0.00 cm**-1
   5:      2030.47 cm**-1


------------
NORMAL MODES
------------

These modes are the Cartesian displacements weighted by the diagonal matrix
M(i,i)=1/sqrt(m[i]) where m[i] is the mass of the displaced atom
Thus, these vectors are normalized but *not* orthogonal

                  0          1          2          3          4          5    
      0       0.000000   0.000000   0.000000   0.000000   0.000000   0.752393
      1       0.000000   0.000000   0.000000   0.000000   0.000000   0.000000
      2       0.000000   0.000000   0.000000   0.000000   0.000000   0.000000
      3       0.000000   0.000000   0.000000   0.000000   0.000000  -0.658714
      4       0.000000   0.000000   0.000000   0.000000   0.000000   0.000000
      5       0.000000   0.000000   0.000000   0.000000   0.000000   0.000000


-----------
IR SPECTRUM
-----------

 Mode   freq       eps      Int      T**2         TX        TY        TZ
       cm**-1   L/(mol*cm) km/mol    a.u.
----------------------------------------------------------------------------
  5:   2030.47   0.008324   42.07  0.001279  ( 0.035767  0.000000  0.000000)

* The epsilon (eps) is given for a Dirac delta lineshape.
** The dipole moment derivative (T) already includes vibrational overlap.

The first frequency considered to be a vibration is 5
The total number of vibrations considered is 1


--------------------------
THERMOCHEMISTRY AT 298.15K
--------------------------

Temperature         ... 298.15 K
Pressure            ... 1.00 atm
Total Mass          ... 30.01 AMU
The molecule is recognized as being linear

Throughout the following assumptions are being made:
  (1) The electronic state is orbitally nondegenerate
      but the spin degeneracy is treated
  (2) There are no thermally accessible electronically excited states
  (3) Hindered rotations indicated by low frequency modes are not
      treated as such but are treated as vibrations and this may
      cause some error
  (4) All equations used are the standard statistical mechanics
      equations for an ideal gas
  (5) All vibrations are strictly harmonic

freq.    2030.47  E(vib)   ...       0.00 

------------
INNER ENERGY
------------

The inner energy is: U= E(el) + E(ZPE) + E(vib) + E(rot) + E(trans)
    E(el)   - is the total energy from the electronic structure calculation
              = E(kin-el) + E(nuc-el) + E(el-el) + E(nuc-nuc)
    E(ZPE)  - the the zero temperature vibrational energy from the frequency calculation
    E(vib)  - the the finite temperature correction to E(ZPE) due to population
              of excited vibrational states
    E(rot)  - is the rotational thermal energy
    E(trans)- is the translational thermal energy

Summary of contributions to the inner energy U:
Electronic energy                ...   -129.80670065 Eh
Zero point energy                ...      0.00462574 Eh       2.90 kcal/mol
Thermal vibrational correction   ...      0.00000051 Eh       0.00 kcal/mol
Thermal rotational correction    ...      0.00094418 Eh       0.59 kcal/mol
Thermal translational correction ...      0.00141627 Eh       0.89 kcal/mol
-----------------------------------------------------------------------
Total thermal energy                   -129.79971394 Eh


Summary of corrections to the electronic energy:
(perhaps to be used in another calculation)
Total thermal correction                  0.00236097 Eh       1.48 kcal/mol
Non-thermal (ZPE) correction              0.00462574 Eh       2.90 kcal/mol
-----------------------------------------------------------------------
Total correction                          0.00698671 Eh       4.38 kcal/mol


--------
ENTHALPY
--------

The enthalpy is H = U + kB*T
                kB is Boltzmann's constant
Total free energy                 ...   -129.79971394 Eh 
Thermal Enthalpy correction       ...      0.00094421 Eh       0.59 kcal/mol
-----------------------------------------------------------------------
Total Enthalpy                    ...   -129.79876974 Eh


Note: Rotational entropy computed according to Herzberg 
Infrared and Raman Spectra, Chapter V,1, Van Nostrand Reinhold, 1945 
Point Group:  Cinfv, Symmetry Number:   1  
Rotational constants in cm-1:     0.000000     1.737578     1.737578 

Vibrational entropy computed according to the QRRHO of S. Grimme
Chem.Eur.J. 2012 18 9955


-------
ENTROPY
-------

The entropy contributions are T*S = T*(S(el)+S(vib)+S(rot)+S(trans))
     S(el)   - electronic entropy
     S(vib)  - vibrational entropy
     S(rot)  - rotational entropy
     S(trans)- translational entropy
The entropies will be listed as multiplied by the temperature to get
units of energy

Electronic entropy                ...      0.00065446 Eh      0.41 kcal/mol
Vibrational entropy               ...      0.00000057 Eh      0.00 kcal/mol
Rotational entropy                ...      0.00545861 Eh      3.43 kcal/mol
Translational entropy             ...      0.01716637 Eh     10.77 kcal/mol
-----------------------------------------------------------------------
Final entropy term                ...      0.02328001 Eh     14.61 kcal/mol


-------------------
GIBBS FREE ENERGY
-------------------

The Gibbs free energy is G = H - T*S

Total enthalpy                    ...   -129.79876974 Eh 
Total entropy correction          ...     -0.02328001 Eh    -14.61 kcal/mol
-----------------------------------------------------------------------
Final Gibbs free energy         ...   -129.82204974 Eh

For completeness - the Gibbs free energy minus the electronic energy
G-E(el)                           ...     -0.01534909 Eh     -9.63 kcal/mol


Timings for individual modules:

Sum of individual times         ...        6.769 sec (=   0.113 min)
GTO integral calculation        ...        0.370 sec (=   0.006 min)   5.5 %
SCF iterations                  ...        1.916 sec (=   0.032 min)  28.3 %
SCF Gradient evaluation         ...        0.342 sec (=   0.006 min)   5.0 %
Geometry relaxation             ...        0.010 sec (=   0.000 min)   0.2 %
Analytical frequency calculation...        4.132 sec (=   0.069 min)  61.0 %
                             ****ORCA TERMINATED NORMALLY****
TOTAL RUN TIME: 0 days 0 hours 0 minutes 6 seconds 929 msec
