
                                 *****************
                                 * O   R   C   A *
                                 *****************

                                            #,                                       
                                            ###                                      
                                            ####                                     
                                            #####                                    
                                            ######                                   
                                           ########,                                 
                                     ,,################,,,,,                         
                               ,,#################################,,                 
                          ,,##########################################,,             
                       ,#########################################, ''#####,          
                    ,#############################################,,   '####,        
                  ,##################################################,,,,####,       
                ,###########''''           ''''###############################       
              ,#####''   ,,,,##########,,,,          '''####'''          '####       
            ,##' ,,,,###########################,,,                        '##       
           ' ,,###''''                  '''############,,,                           
         ,,##''                                '''############,,,,        ,,,,,,###''
      ,#''                                            '''#######################'''  
     '                                                          ''''####''''         
             ,#######,   #######,   ,#######,      ##                                
            ,#'     '#,  ##    ##  ,#'     '#,    #''#        ######   ,####,        
            ##       ##  ##   ,#'  ##            #'  '#       #        #'  '#        
            ##       ##  #######   ##           ,######,      #####,   #    #        
            '#,     ,#'  ##    ##  '#,     ,#' ,#      #,         ##   #,  ,#        
             '#######'   ##     ##  '#######'  #'      '#     #####' # '####'        



                  #######################################################
                  #                        -***-                        #
                  #          Department of theory and spectroscopy      #
                  #    Directorship and core code : Frank Neese         #
                  #        Max Planck Institute fuer Kohlenforschung    #
                  #                Kaiser Wilhelm Platz 1               #
                  #                 D-45470 Muelheim/Ruhr               #
                  #                      Germany                        #
                  #                                                     #
                  #                  All rights reserved                #
                  #                        -***-                        #
                  #######################################################


                         Program Version 5.0.1 -  RELEASE  -


 With contributions from (in alphabetic order):
   Daniel Aravena         : Magnetic Suceptibility
   Michael Atanasov       : Ab Initio Ligand Field Theory (pilot matlab implementation)
   Alexander A. Auer      : GIAO ZORA, VPT2 properties, NMR spectrum
   Ute Becker             : Parallelization
   Giovanni Bistoni       : ED, misc. LED, open-shell LED, HFLD
   Martin Brehm           : Molecular dynamics
   Dmytro Bykov           : SCF Hessian
   Vijay G. Chilkuri      : MRCI spin determinant printing, contributions to CSF-ICE
   Dipayan Datta          : RHF DLPNO-CCSD density
   Achintya Kumar Dutta   : EOM-CC, STEOM-CC
   Dmitry Ganyushin       : Spin-Orbit,Spin-Spin,Magnetic field MRCI
   Miquel Garcia          : C-PCM and meta-GGA Hessian, CC/C-PCM, Gaussian charge scheme
   Yang Guo               : DLPNO-NEVPT2, F12-NEVPT2, CIM, IAO-localization
   Andreas Hansen         : Spin unrestricted coupled pair/coupled cluster methods
   Benjamin Helmich-Paris : MC-RPA, TRAH-SCF, COSX integrals
   Lee Huntington         : MR-EOM, pCC
   Robert Izsak           : Overlap fitted RIJCOSX, COSX-SCS-MP3, EOM
   Marcus Kettner         : VPT2
   Christian Kollmar      : KDIIS, OOCD, Brueckner-CCSD(T), CCSD density, CASPT2, CASPT2-K
   Simone Kossmann        : Meta GGA functionals, TD-DFT gradient, OOMP2, MP2 Hessian
   Martin Krupicka        : Initial AUTO-CI
   Lucas Lang             : DCDCAS
   Marvin Lechner         : AUTO-CI (C++ implementation), FIC-MRCC
   Dagmar Lenk            : GEPOL surface, SMD
   Dimitrios Liakos       : Extrapolation schemes; Compound Job, initial MDCI parallelization
   Dimitrios Manganas     : Further ROCIS development; embedding schemes
   Dimitrios Pantazis     : SARC Basis sets
   Anastasios Papadopoulos: AUTO-CI, single reference methods and gradients
   Taras Petrenko         : DFT Hessian,TD-DFT gradient, ASA, ECA, R-Raman, ABS, FL, XAS/XES, NRVS
   Peter Pinski           : DLPNO-MP2, DLPNO-MP2 Gradient
   Christoph Reimann      : Effective Core Potentials
   Marius Retegan         : Local ZFS, SOC
   Christoph Riplinger    : Optimizer, TS searches, QM/MM, DLPNO-CCSD(T), (RO)-DLPNO pert. Triples
   Tobias Risthaus        : Range-separated hybrids, TD-DFT gradient, RPA, STAB
   Michael Roemelt        : Original ROCIS implementation
   Masaaki Saitow         : Open-shell DLPNO-CCSD energy and density
   Barbara Sandhoefer     : DKH picture change effects
   Avijit Sen             : IP-ROCIS
   Kantharuban Sivalingam : CASSCF convergence, NEVPT2, FIC-MRCI
   Bernardo de Souza      : ESD, SOC TD-DFT
   Georgi Stoychev        : AutoAux, RI-MP2 NMR, DLPNO-MP2 response
   Willem Van den Heuvel  : Paramagnetic NMR
   Boris Wezisla          : Elementary symmetry handling
   Frank Wennmohs         : Technical directorship


 We gratefully acknowledge several colleagues who have allowed us to
 interface, adapt or use parts of their codes:
   Stefan Grimme, W. Hujo, H. Kruse, P. Pracht,  : VdW corrections, initial TS optimization,
                  C. Bannwarth, S. Ehlert          DFT functionals, gCP, sTDA/sTD-DF
   Ed Valeev, F. Pavosevic, A. Kumar             : LibInt (2-el integral package), F12 methods
   Garnet Chan, S. Sharma, J. Yang, R. Olivares  : DMRG
   Ulf Ekstrom                                   : XCFun DFT Library
   Mihaly Kallay                                 : mrcc  (arbitrary order and MRCC methods)
   Jiri Pittner, Ondrej Demel                    : Mk-CCSD
   Frank Weinhold                                : gennbo (NPA and NBO analysis)
   Christopher J. Cramer and Donald G. Truhlar   : smd solvation model
   Lars Goerigk                                  : TD-DFT with DH, B97 family of functionals
   V. Asgeirsson, H. Jonsson                     : NEB implementation
   FAccTs GmbH                                   : IRC, NEB, NEB-TS, DLPNO-Multilevel, CI-OPT
                                                   MM, QMMM, 2- and 3-layer-ONIOM, Crystal-QMMM,
                                                   LR-CPCM, SF, NACMEs, symmetry and pop. for TD-DFT,
                                                   nearIR, NL-DFT gradient (VV10), updates on ESD,
                                                   ML-optimized integration grids
   S Lehtola, MJT Oliveira, MAL Marques          : LibXC Library
   Liviu Ungur et al                             : ANISO software


 Your calculation uses the libint2 library for the computation of 2-el integrals
 For citations please refer to: http://libint.valeyev.net

 Your ORCA version has been built with support for libXC version: 5.1.0
 For citations please refer to: https://tddft.org/programs/libxc/

 This ORCA versions uses:
   CBLAS   interface :  Fast vector & matrix operations
   LAPACKE interface :  Fast linear algebra routines
   SCALAPACK package :  Parallel linear algebra routines
   Shared memory     :  Shared parallel matrices
   BLAS/LAPACK       :  OpenBLAS 0.3.15  USE64BITINT DYNAMIC_ARCH NO_AFFINITY Zen SINGLE_THREADED
        Core in use  :  Zen
   Copyright (c) 2011-2014, The OpenBLAS Project




***************************************
The coordinates will be read from file: phosphine.xyz
***************************************


================================================================================

----- Orbital basis set information -----
Your calculation utilizes the basis: aug-cc-pVTZ 
    H, B-Ne : Obtained from the ccRepo (grant-hill.group.shef.ac.uk/ccrepo) Feb. 2017
              R. A. Kendall, T. H. Dunning, Jr., R. J. Harrison, J. Chem. Phys. 96, 6796 (1992)
         He : Obtained from the ccRepo (grant-hill.group.shef.ac.uk/ccrepo) Feb. 2017
              D. E. Woon, T. H. Dunning, Jr., J. Chem. Phys. 100, 2975 (1994)
  Li-Be, Na : Obtained from the ccRepo (grant-hill.group.shef.ac.uk/ccrepo) Feb. 2017
              B. P. Prascher, D. E. Woon, K. A. Peterson, T. H. Dunning, Jr., A. K. Wilson, Theor. Chem. Acc. 128, 69 (2011)
         Mg : Obtained from the Peterson Research Group Website (tyr0.chem.wsu.edu/~kipeters) Feb. 2017
              B. P. Prascher, D. E. Woon, K. A. Peterson, T. H. Dunning, Jr., A. K. Wilson, Theor. Chem. Acc. 128, 69 (2011)
      Al-Ar : Obtained from the ccRepo (grant-hill.group.shef.ac.uk/ccrepo) Feb. 2017
              D. E. Woon, T. H. Dunning, Jr., J. Chem. Phys. 98, 1358 (1993)
      Sc-Zn : Obtained from the ccRepo (grant-hill.group.shef.ac.uk/ccrepo) Feb. 2017
              N. B. Balabanov, K. A. Peterson, J. Chem. Phys. 123, 064107 (2005)
              N. B. Balabanov, K. A. Peterson, J. Chem. Phys. 125, 074110 (2006)
      Ga-Kr : Obtained from the ccRepo (grant-hill.group.shef.ac.uk/ccrepo) Feb. 2017
              A. K. Wilson, D. E. Woon, K. A. Peterson, T. H. Dunning, Jr., J. Chem. Phys. 110, 7667 (1999)
     Ag, Au : Obtained from the Peterson Research Group Website (tyr0.chem.wsu.edu/~kipeters) Feb. 2017
              K. A. Peterson, C. Puzzarini, Theor. Chem. Acc. 114, 283 (2005)

----- AuxJ basis set information -----
Your calculation utilizes the auxiliary basis: def2/J
   F. Weigend, Phys. Chem. Chem. Phys. 8, 1057 (2006).

----- AuxC basis set information -----
Your calculation utilizes the auxiliary basis: aug-cc-pVTZ/C 
  H-He, B-F, Al-Ar, Ga-Kr : Obtained from the EMSL Basis Set Exchange (bse.pnl.gov) Feb. 2017
                            F. Weigend, A. Kohn, C. Hattig, J. Chem. Phys. 116, 3175 (2002)
                   Be, Mg : Obtained from the TURBOMOLE 7.0 basis set library
                            C. Haettig, Phys. Chem. Chem. Phys. 7, 59 (2005)
                       Ne : Obtained from the EMSL Basis Set Exchange (bse.pnl.gov) Feb. 2017
                            C. Haettig, Phys. Chem. Chem. Phys. 7, 59 (2005)
                            F. Weigend, A. Kohn, C. Hattig, J. Chem. Phys. 116, 3175 (2002)
                    Sc-Zn : Obtained from the EMSL Basis Set Exchange (bse.pnl.gov) Feb. 2017
                            J. G. Hill, J. A. Platts, J. Chem. Phys. 128, 044104 (2008)

================================================================================
                                        WARNINGS
                       Please study these warnings very carefully!
================================================================================


WARNING: The global RI flag was set to true, but no RI-MP2 calculation was requested


WARNING: Post HF methods need fully converged wavefunctions
  ===> : Setting SCFConvForced true
         You can overwrite this default with %scf ConvForced false 


INFO   : the flag for use of the SHARK integral package has been found!

================================================================================
                                       INPUT FILE
================================================================================
NAME = phosphine_MP2.inp
|  1> 
|  2> %pal
|  3>   nprocs 6
|  4> end
|  5> %maxcore 2000
|  6> 
|  7> ! MP2 aug-cc-pVTZ VeryTightSCF
|  8> ! RIJCOSX def2/J aug-cc-pVTZ/C
|  9> 
| 10> %mp2
| 11>   density unrelaxed
| 12> end
| 13> 
| 14> * xyzfile 0 1 phosphine.xyz
| 15> 
| 16> 
| 17>                          ****END OF INPUT****
================================================================================

                       ****************************
                       * Single Point Calculation *
                       ****************************

---------------------------------
CARTESIAN COORDINATES (ANGSTROEM)
---------------------------------
  P     -0.092768   -0.131096    0.227150
  H     -0.395501    1.225554   -0.061679
  H     -0.395627   -0.559549   -1.091980
  H      1.287226    0.035481   -0.061462

----------------------------
CARTESIAN COORDINATES (A.U.)
----------------------------
  NO LB      ZA    FRAG     MASS         X           Y           Z
   0 P    15.0000    0    30.974   -0.175307   -0.247736    0.429252
   1 H     1.0000    0     1.008   -0.747389    2.315962   -0.116556
   2 H     1.0000    0     1.008   -0.747626   -1.057395   -2.063543
   3 H     1.0000    0     1.008    2.432505    0.067050   -0.116145

--------------------------------
INTERNAL COORDINATES (ANGSTROEM)
--------------------------------
 P      0   0   0     0.000000000000     0.00000000     0.00000000
 H      1   0   0     1.419707867253     0.00000000     0.00000000
 H      1   2   0     1.419647753805    93.08798799     0.00000000
 H      1   2   3     1.419658125614    93.08366703    93.26453425

---------------------------
INTERNAL COORDINATES (A.U.)
---------------------------
 P      0   0   0     0.000000000000     0.00000000     0.00000000
 H      1   0   0     2.682859059282     0.00000000     0.00000000
 H      1   2   0     2.682745461328    93.08798799     0.00000000
 H      1   2   3     2.682765061206    93.08366703    93.26453425

---------------------
BASIS SET INFORMATION
---------------------
There are 2 groups of distinct atoms

 Group   1 Type P   : 42s17p3d2f contracted to 6s5p3d2f pattern {131313111/77111/111/11}
 Group   2 Type H   : 6s3p2d contracted to 4s3p2d pattern {3111/111/11}

Atom   0P    basis set group =>   1
Atom   1H    basis set group =>   2
Atom   2H    basis set group =>   2
Atom   3H    basis set group =>   2
---------------------------------
AUXILIARY/J BASIS SET INFORMATION
---------------------------------
There are 2 groups of distinct atoms

 Group   1 Type P   : 14s5p5d2f1g contracted to 8s4p3d1f1g pattern {71111111/2111/311/2/1}
 Group   2 Type H   : 5s2p1d contracted to 3s1p1d pattern {311/2/1}

Atom   0P    basis set group =>   1
Atom   1H    basis set group =>   2
Atom   2H    basis set group =>   2
Atom   3H    basis set group =>   2
---------------------------------
AUXILIARY/C BASIS SET INFORMATION
---------------------------------
There are 2 groups of distinct atoms

 Group   1 Type P   : 11s9p8d6f3g contracted to 11s9p8d6f3g pattern {11111111111/111111111/11111111/111111/111}
 Group   2 Type H   : 5s4p3d2f contracted to 5s4p3d2f pattern {11111/1111/111/11}

Atom   0P    basis set group =>   1
Atom   1H    basis set group =>   2
Atom   2H    basis set group =>   2
Atom   3H    basis set group =>   2


           ************************************************************
           *        Program running with 6 parallel MPI-processes     *
           *              working on a common directory               *
           ************************************************************
------------------------------------------------------------------------------
                           ORCA GTO INTEGRAL CALCULATION
                           -- RI-GTO INTEGRALS CHOSEN --
------------------------------------------------------------------------------
------------------------------------------------------------------------------
                   ___                                                        
                  /   \      - P O W E R E D   B Y -                         
                 /     \                                                     
                 |  |  |   _    _      __       _____    __    __             
                 |  |  |  | |  | |    /  \     |  _  \  |  |  /  |          
                  \  \/   | |  | |   /    \    | | | |  |  | /  /          
                 / \  \   | |__| |  /  /\  \   | |_| |  |  |/  /          
                |  |  |   |  __  | /  /__\  \  |    /   |      \           
                |  |  |   | |  | | |   __   |  |    \   |  |\   \          
                \     /   | |  | | |  |  |  |  | |\  \  |  | \   \       
                 \___/    |_|  |_| |__|  |__|  |_| \__\ |__|  \__/        
                                                                              
                      - O R C A' S   B I G   F R I E N D -                    
                                      &                                       
                       - I N T E G R A L  F E E D E R -                       
                                                                              
 v1 FN, 2020, v2 2021                                                         
------------------------------------------------------------------------------


Reading SHARK input file phosphine_MP2.SHARKINP.tmp ... ok
----------------------
SHARK INTEGRAL PACKAGE
----------------------

Number of atoms                             ...      4
Number of basis functions                   ...    119
Number of shells                            ...     43
Maximum angular momentum                    ...      3
Integral batch strategy                     ... SHARK/LIBINT Hybrid
RI-J (if used) integral strategy            ... SPLIT-RIJ (Revised 2003 algorithm where possible)
Printlevel                                  ...      1
Contraction scheme used                     ... SEGMENTED contraction
Coulomb Range Separation                    ... NOT USED
Exchange Range Separation                   ... NOT USED
Finite Nucleus Model                        ... NOT USED
Auxiliary Coulomb fitting basis             ... AVAILABLE
   # of basis functions in Aux-J            ...     84
   # of shells in Aux-J                     ...     32
   Maximum angular momentum in Aux-J        ...      4
Auxiliary J/K fitting basis                 ... NOT available
Auxiliary Correlation fitting basis         ... AVAILABLE
   # of basis functions in Aux-C            ...    285
   # of shells in Aux-C                     ...     79
   Maximum angular momentum in Aux-C        ...      4
Auxiliary 'external' fitting basis          ... NOT available
Integral threshold                          ...     1.000000e-12
Primitive cut-off                           ...     1.000000e-14
Primitive pair pre-selection threshold      ...     1.000000e-14

Calculating pre-screening integrals         ... done (  0.1 sec) Dimension = 43
Organizing shell pair data                  ... done (  0.0 sec)
Shell pair information
Total number of shell pairs                 ...       946
Shell pairs after pre-screening             ...       946
Total number of primitive shell pairs       ...      5038
Primitive shell pairs kept                  ...      4846
          la=0 lb=0:    171 shell pairs
          la=1 lb=0:    252 shell pairs
          la=1 lb=1:    105 shell pairs
          la=2 lb=0:    162 shell pairs
          la=2 lb=1:    126 shell pairs
          la=2 lb=2:     45 shell pairs
          la=3 lb=0:     36 shell pairs
          la=3 lb=1:     28 shell pairs
          la=3 lb=2:     18 shell pairs
          la=3 lb=3:      3 shell pairs

Calculating one electron integrals          ... done (  0.0 sec)
Calculating RI/J V-Matrix + Cholesky decomp.... done (  0.0 sec)
Calculating RI/C V-Matrix + Cholesky decomp.... done (  0.0 sec)
Calculating Nuclear repulsion               ... done (  0.0 sec) ENN=     17.543831321688 Eh

SHARK setup successfully completed in   0.1 seconds

Maximum memory used throughout the entire GTOINT-calculation: 47.9 MB


           ************************************************************
           *        Program running with 6 parallel MPI-processes     *
           *              working on a common directory               *
           ************************************************************
-------------------------------------------------------------------------------
                                 ORCA SCF
-------------------------------------------------------------------------------

------------
SCF SETTINGS
------------
Hamiltonian:
 Ab initio Hamiltonian  Method          .... Hartree-Fock(GTOs)
 RI-approximation to the Coulomb term is turned on
   Number of AuxJ basis functions       .... 84
   RIJ-COSX (HFX calculated with COS-X)).... on


General Settings:
 Integral files         IntName         .... phosphine_MP2
 Hartree-Fock type      HFTyp           .... RHF
 Total Charge           Charge          ....    0
 Multiplicity           Mult            ....    1
 Number of Electrons    NEL             ....   18
 Basis Dimension        Dim             ....  119
 Nuclear Repulsion      ENuc            ....     17.5438313217 Eh

Convergence Acceleration:
 DIIS                   CNVDIIS         .... on
   Start iteration      DIISMaxIt       ....    12
   Startup error        DIISStart       ....  0.200000
   # of expansion vecs  DIISMaxEq       ....     5
   Bias factor          DIISBfac        ....   1.050
   Max. coefficient     DIISMaxC        ....  10.000
 Trust-Rad. Augm. Hess. CNVTRAH         .... auto
   Auto Start mean grad. ratio tolernc. ....  1.125000
   Auto Start start iteration           ....    20
   Auto Start num. interpolation iter.  ....    10
   Max. Number of Micro iterations      ....    16
   Max. Number of Macro iterations      .... Maxiter - #DIIS iter
   Number of Davidson start vectors     ....     2
   Converg. threshold I  (grad. norm)   ....   2.000e-06
   Converg. threshold II (energy diff.) ....   1.000e-09
   Grad. Scal. Fac. for Micro threshold ....   0.100
   Minimum threshold for Micro iter.    ....   0.010
   NR start threshold (gradient norm)   ....   0.001
   Initial trust radius                 ....   0.400
   Minimum AH scaling param. (alpha)    ....   1.000
   Maximum AH scaling param. (alpha)    .... 1000.000
   Orbital update algorithm             .... Taylor
   White noise on init. David. guess    .... on
   Maximum white noise                  ....   0.010
   Quad. conv. algorithm                .... NR
 SOSCF                  CNVSOSCF        .... on
   Start iteration      SOSCFMaxIt      ....   150
   Startup grad/error   SOSCFStart      ....  0.003300
 Level Shifting         CNVShift        .... on
   Level shift para.    LevelShift      ....    0.2500
   Turn off err/grad.   ShiftErr        ....    0.0010
 Zerner damping         CNVZerner       .... off
 Static damping         CNVDamp         .... on
   Fraction old density DampFac         ....    0.7000
   Max. Damping (<1)    DampMax         ....    0.9800
   Min. Damping (>=0)   DampMin         ....    0.0000
   Turn off err/grad.   DampErr         ....    0.1000
 Fernandez-Rico         CNVRico         .... off

SCF Procedure:
 Maximum # iterations   MaxIter         ....   125
 SCF integral mode      SCFMode         .... Direct
   Integral package                     .... SHARK and LIBINT hybrid scheme
 Reset frequency        DirectResetFreq ....    20
 Integral Threshold     Thresh          ....  1.000e-12 Eh
 Primitive CutOff       TCut            ....  1.000e-14 Eh

Convergence Tolerance:
 Convergence Check Mode ConvCheckMode   .... Total+1el-Energy
 Convergence forced     ConvForced      .... 1
 Energy Change          TolE            ....  1.000e-09 Eh
 1-El. energy change                    ....  1.000e-06 Eh
 Orbital Gradient       TolG            ....  2.000e-06
 Orbital Rotation angle TolX            ....  2.000e-06
 DIIS Error             TolErr          ....  1.000e-08


Diagonalization of the overlap matrix:
Smallest eigenvalue                        ... 1.959e-04
Time for diagonalization                   ...    0.001 sec
Threshold for overlap eigenvalues          ... 1.000e-08
Number of eigenvalues below threshold      ... 0
Time for construction of square roots      ...    0.001 sec
Total time needed                          ...    0.002 sec

Time for model grid setup =    0.011 sec

------------------------------
INITIAL GUESS: MODEL POTENTIAL
------------------------------
Loading Hartree-Fock densities                     ... done
Calculating cut-offs                               ... done
Initializing the effective Hamiltonian             ... done
Setting up the integral package (SHARK)            ... done
Starting the Coulomb interaction                   ... done (   0.0 sec)
Reading the grid                                   ... done
Mapping shells                                     ... done
Starting the XC term evaluation                    ... done (   0.0 sec)
Transforming the Hamiltonian                       ... done (   0.0 sec)
Diagonalizing the Hamiltonian                      ... done (   0.0 sec)
Back transforming the eigenvectors                 ... done (   0.0 sec)
Now organizing SCF variables                       ... done
                      ------------------
                      INITIAL GUESS DONE (   0.0 sec)
                      ------------------
--------------------
COSX GRID GENERATION
--------------------

GRIDX 1
-------
General Integration Accuracy     IntAcc      ... 3.816
Radial Grid Type                 RadialGrid  ... OptM3 with GC (2021)
Angular Grid (max. ang.)         AngularGrid ... 1 (Lebedev-50)
Angular grid pruning method      GridPruning ... 4 (adaptive)
Weight generation scheme         WeightScheme... Becke
Basis function cutoff            BFCut       ... 1.0000e-12
Integration weight cutoff        WCut        ... 1.0000e-14
Angular grids for H and He will be reduced by one unit
Partially contracted basis set               ... on
Rotationally invariant grid construction     ... off

Total number of grid points                  ...     2198
Total number of batches                      ...       35
Average number of points per batch           ...       62
Average number of grid points per atom       ...      550
UseSFitting                                  ... on

GRIDX 2
-------
General Integration Accuracy     IntAcc      ... 4.020
Radial Grid Type                 RadialGrid  ... OptM3 with GC (2021)
Angular Grid (max. ang.)         AngularGrid ... 2 (Lebedev-110)
Angular grid pruning method      GridPruning ... 4 (adaptive)
Weight generation scheme         WeightScheme... Becke
Basis function cutoff            BFCut       ... 1.0000e-12
Integration weight cutoff        WCut        ... 1.0000e-14
Angular grids for H and He will be reduced by one unit
Partially contracted basis set               ... on
Rotationally invariant grid construction     ... off

Total number of grid points                  ...     4959
Total number of batches                      ...       79
Average number of points per batch           ...       62
Average number of grid points per atom       ...     1240
UseSFitting                                  ... on

GRIDX 3
-------
General Integration Accuracy     IntAcc      ... 4.338
Radial Grid Type                 RadialGrid  ... OptM3 with GC (2021)
Angular Grid (max. ang.)         AngularGrid ... 3 (Lebedev-194)
Angular grid pruning method      GridPruning ... 4 (adaptive)
Weight generation scheme         WeightScheme... Becke
Basis function cutoff            BFCut       ... 1.0000e-12
Integration weight cutoff        WCut        ... 1.0000e-14
Angular grids for H and He will be reduced by one unit
Partially contracted basis set               ... on
Rotationally invariant grid construction     ... off

Total number of grid points                  ...    12387
Total number of batches                      ...      195
Average number of points per batch           ...       63
Average number of grid points per atom       ...     3097
UseSFitting                                  ... on

Time for X-Grid setup             =    0.054 sec

 re-compute Schwartz prescreening matrix in partically contracted basis (1) ...done (   0.054 sec)
--------------
SCF ITERATIONS
--------------
ITER       Energy         Delta-E        Max-DP      RMS-DP      [F,P]     Damp
               ***  Starting incremental Fock matrix formation  ***
  0   -342.4539223842   0.000000000000 0.07309919  0.00106736  0.1190670 0.7000
  1   -342.4636647133  -0.009742329086 0.05231170  0.00086027  0.0873821 0.7000
                               ***Turning on DIIS***
  2   -342.4706935022  -0.007028788974 0.12252443  0.00220428  0.0619739 0.0000
  3   -342.4891182077  -0.018424705446 0.04217596  0.00056221  0.0095130 0.0000
  4   -342.4764908849   0.012627322794 0.01258151  0.00018267  0.0042854 0.0000
                      *** Initiating the SOSCF procedure ***
                           *** Shutting down DIIS ***
                      *** Re-Reading the Fockian *** 
                      *** Removing any level shift *** 
ITER      Energy       Delta-E        Grad      Rot      Max-DP    RMS-DP
  5   -342.48904854  -0.0125576532  0.001595  0.001595  0.002172  0.000048
               *** Restarting incremental Fock matrix formation ***
  6   -342.48791407   0.0011344669  0.000468  0.000793  0.000668  0.000023
  7   -342.48791733  -0.0000032614  0.000195  0.000573  0.000229  0.000012
  8   -342.48791807  -0.0000007413  0.000012  0.000014  0.000126  0.000002
  9   -342.48791808  -0.0000000030  0.000004  0.000005  0.000044  0.000001
                  ***Gradient check signals convergence***
              ***Rediagonalizing the Fockian in SOSCF/NRSCF***

               *****************************************************
               *                     SUCCESS                       *
               *           SCF CONVERGED AFTER  10 CYCLES          *
               *****************************************************

Old exchange energy                            =    -23.676299214 Eh
New exchange energy                            =    -23.676248662 Eh
Exchange energy change after final integration =      0.000050551 Eh
Total energy after final integration           =   -342.487867527 Eh
Final COS-X integration done in                =     0.186 sec

----------------
TOTAL SCF ENERGY
----------------

Total Energy       :         -342.48786753 Eh           -9319.56867 eV

Components:
Nuclear Repulsion  :           17.54383132 Eh             477.39192 eV
Electronic Energy  :         -360.03169885 Eh           -9796.96059 eV
One Electron Energy:         -508.32777147 Eh          -13832.30188 eV
Two Electron Energy:          148.29607262 Eh            4035.34129 eV
Max COSX asymmetry :            0.00000213 Eh               0.00006 eV

Virial components:
Potential Energy   :         -684.92055970 Eh          -18637.63595 eV
Kinetic Energy     :          342.43269218 Eh            9318.06728 eV
Virial Ratio       :            2.00016113


---------------
SCF CONVERGENCE
---------------

  Last Energy change         ...   -9.1927e-10  Tolerance :   1.0000e-09
  Last MAX-Density change    ...    6.6613e-16  Tolerance :   1.0000e-08
  Last RMS-Density change    ...    1.0779e-17  Tolerance :   1.0000e-09
  Last Orbital Gradient      ...    3.8440e-07  Tolerance :   2.0000e-06
  Last Orbital Rotation      ...    5.4107e-07  Tolerance :   2.0000e-06

             **** THE GBW FILE WAS UPDATED (phosphine_MP2.gbw) ****
             **** DENSITY phosphine_MP2.scfp WAS UPDATED ****
             **** ENERGY FILE WAS UPDATED (phosphine_MP2.en.tmp) ****
             **** THE GBW FILE WAS UPDATED (phosphine_MP2.gbw) ****
             **** DENSITY phosphine_MP2.scfp WAS UPDATED ****
----------------
ORBITAL ENERGIES
----------------

  NO   OCC          E(Eh)            E(eV) 
   0   2.0000     -79.946906     -2175.4659 
   1   2.0000      -7.489293      -203.7940 
   2   2.0000      -5.383578      -146.4946 
   3   2.0000      -5.381890      -146.4487 
   4   2.0000      -5.381860      -146.4479 
   5   2.0000      -0.855033       -23.2666 
   6   2.0000      -0.520070       -14.1518 
   7   2.0000      -0.520036       -14.1509 
   8   2.0000      -0.389191       -10.5904 
   9   0.0000       0.029022         0.7897 
  10   0.0000       0.053583         1.4581 
  11   0.0000       0.053584         1.4581 
  12   0.0000       0.081346         2.2135 
  13   0.0000       0.090149         2.4531 
  14   0.0000       0.090150         2.4531 
  15   0.0000       0.137462         3.7405 
  16   0.0000       0.167371         4.5544 
  17   0.0000       0.167389         4.5549 
  18   0.0000       0.200105         5.4451 
  19   0.0000       0.200117         5.4455 
  20   0.0000       0.201610         5.4861 
  21   0.0000       0.275532         7.4976 
  22   0.0000       0.275543         7.4979 
  23   0.0000       0.291499         7.9321 
  24   0.0000       0.307788         8.3753 
  25   0.0000       0.307793         8.3755 
  26   0.0000       0.324057         8.8180 
  27   0.0000       0.326352         8.8805 
  28   0.0000       0.326362         8.8808 
  29   0.0000       0.333229         9.0676 
  30   0.0000       0.380403        10.3513 
  31   0.0000       0.380437        10.3522 
  32   0.0000       0.383969        10.4483 
  33   0.0000       0.566925        15.4268 
  34   0.0000       0.566963        15.4279 
  35   0.0000       0.568606        15.4726 
  36   0.0000       0.601527        16.3684 
  37   0.0000       0.601538        16.3687 
  38   0.0000       0.632370        17.2077 
  39   0.0000       0.658375        17.9153 
  40   0.0000       0.665993        18.1226 
  41   0.0000       0.729935        19.8626 
  42   0.0000       0.729951        19.8630 
  43   0.0000       0.749036        20.3823 
  44   0.0000       0.764908        20.8142 
  45   0.0000       0.765017        20.8172 
  46   0.0000       0.783100        21.3092 
  47   0.0000       0.783153        21.3107 
  48   0.0000       0.860614        23.4185 
  49   0.0000       0.932992        25.3880 
  50   0.0000       0.933023        25.3888 
  51   0.0000       0.966846        26.3092 
  52   0.0000       0.976132        26.5619 
  53   0.0000       1.005842        27.3703 
  54   0.0000       1.005867        27.3710 
  55   0.0000       1.028723        27.9930 
  56   0.0000       1.028775        27.9944 
  57   0.0000       1.032692        28.1010 
  58   0.0000       1.149868        31.2895 
  59   0.0000       1.149878        31.2898 
  60   0.0000       1.171491        31.8779 
  61   0.0000       1.199056        32.6280 
  62   0.0000       1.199077        32.6285 
  63   0.0000       1.262017        34.3412 
  64   0.0000       1.262046        34.3420 
  65   0.0000       1.272963        34.6391 
  66   0.0000       1.468809        39.9683 
  67   0.0000       1.504565        40.9413 
  68   0.0000       1.504603        40.9423 
  69   0.0000       1.512902        41.1682 
  70   0.0000       1.626244        44.2524 
  71   0.0000       1.626263        44.2529 
  72   0.0000       1.644260        44.7426 
  73   0.0000       1.677076        45.6355 
  74   0.0000       1.677196        45.6388 
  75   0.0000       1.787607        48.6433 
  76   0.0000       1.787745        48.6470 
  77   0.0000       1.795925        48.8696 
  78   0.0000       1.887075        51.3499 
  79   0.0000       1.993734        54.2523 
  80   0.0000       2.155467        58.6532 
  81   0.0000       2.155562        58.6558 
  82   0.0000       2.169434        59.0333 
  83   0.0000       2.271154        61.8013 
  84   0.0000       2.271206        61.8027 
  85   0.0000       2.314638        62.9845 
  86   0.0000       2.418765        65.8179 
  87   0.0000       2.419001        65.8244 
  88   0.0000       2.698901        73.4408 
  89   0.0000       2.912944        79.2652 
  90   0.0000       2.913142        79.2706 
  91   0.0000       3.456133        94.0462 
  92   0.0000       3.587573        97.6228 
  93   0.0000       3.587831        97.6298 
  94   0.0000       3.904796       106.2549 
  95   0.0000       3.904808       106.2552 
  96   0.0000       3.922757       106.7436 
  97   0.0000       3.990336       108.5826 
  98   0.0000       3.990358       108.5832 
  99   0.0000       4.117312       112.0378 
 100   0.0000       4.130070       112.3849 
 101   0.0000       4.130112       112.3861 
 102   0.0000       4.199261       114.2677 
 103   0.0000       4.320150       117.5572 
 104   0.0000       4.442955       120.8990 
 105   0.0000       4.442992       120.8999 
 106   0.0000       4.478105       121.8554 
 107   0.0000       4.525174       123.1363 
 108   0.0000       4.525228       123.1377 
 109   0.0000       4.544341       123.6578 
 110   0.0000       4.674453       127.1983 
 111   0.0000       4.742729       129.0562 
 112   0.0000       4.742866       129.0600 
 113   0.0000       4.814080       130.9978 
 114   0.0000       4.814104       130.9984 
 115   0.0000       4.864203       132.3617 
 116   0.0000       5.343461       145.4030 
 117   0.0000       5.343630       145.4076 
 118   0.0000       8.443766       229.7666 

                    ********************************
                    * MULLIKEN POPULATION ANALYSIS *
                    ********************************

-----------------------
MULLIKEN ATOMIC CHARGES
-----------------------
   0 P :   -0.243673
   1 H :    0.080050
   2 H :    0.081326
   3 H :    0.082297
Sum of atomic charges:    0.0000000

--------------------------------
MULLIKEN REDUCED ORBITAL CHARGES
--------------------------------
  0 P s       :     5.577315  s :     5.577315
      pz      :     3.284712  p :     9.393458
      px      :     3.028708
      py      :     3.080038
      dz2     :     0.087989  d :     0.254297
      dxz     :     0.021704
      dyz     :     0.029804
      dx2y2   :     0.101082
      dxy     :     0.013718
      f0      :     0.004701  f :     0.018604
      f+1     :     0.002199
      f-1     :     0.002705
      f+2     :     0.002300
      f-2     :     0.000561
      f+3     :     0.002931
      f-3     :     0.003206
  1 H s       :     0.912071  s :     0.912071
      pz      :    -0.000378  p :     0.007686
      px      :    -0.003099
      py      :     0.011163
      dz2     :    -0.000092  d :     0.000193
      dxz     :     0.000095
      dyz     :     0.000172
      dx2y2   :    -0.000177
      dxy     :     0.000195
  2 H s       :     0.911150  s :     0.911150
      pz      :     0.010205  p :     0.007363
      px      :    -0.003161
      py      :     0.000319
      dz2     :     0.000797  d :     0.000160
      dxz     :     0.000458
      dyz     :     0.000254
      dx2y2   :    -0.001183
      dxy     :    -0.000167
  3 H s       :     0.910374  s :     0.910374
      pz      :    -0.000397  p :     0.007136
      px      :     0.011955
      py      :    -0.004422
      dz2     :    -0.000097  d :     0.000194
      dxz     :     0.000271
      dyz     :     0.000008
      dx2y2   :     0.000228
      dxy     :    -0.000216


                     *******************************
                     * LOEWDIN POPULATION ANALYSIS *
                     *******************************

----------------------
LOEWDIN ATOMIC CHARGES
----------------------
   0 P :    1.315707
   1 H :   -0.438585
   2 H :   -0.438572
   3 H :   -0.438549

-------------------------------
LOEWDIN REDUCED ORBITAL CHARGES
-------------------------------
  0 P s       :     4.767052  s :     4.767052
      pz      :     2.962007  p :     8.487194
      px      :     2.740534
      py      :     2.784653
      dz2     :     0.107278  d :     0.348575
      dxz     :     0.026164
      dyz     :     0.046064
      dx2y2   :     0.141731
      dxy     :     0.027339
      f0      :     0.016328  f :     0.081472
      f+1     :     0.010856
      f-1     :     0.014075
      f+2     :     0.007857
      f-2     :     0.002733
      f+3     :     0.017309
      f-3     :     0.012314
  1 H s       :     0.828767  s :     0.828767
      pz      :     0.123199  p :     0.395803
      px      :     0.092245
      py      :     0.180359
      dz2     :     0.017483  d :     0.214015
      dxz     :     0.002452
      dyz     :     0.080977
      dx2y2   :     0.057217
      dxy     :     0.055886
  2 H s       :     0.828736  s :     0.828736
      pz      :     0.200659  p :     0.395812
      px      :     0.092255
      py      :     0.102898
      dz2     :     0.081145  d :     0.214025
      dxz     :     0.049694
      dyz     :     0.053808
      dx2y2   :     0.020743
      dxy     :     0.008634
  3 H s       :     0.828758  s :     0.828758
      pz      :     0.123210  p :     0.395784
      px      :     0.177100
      py      :     0.095474
      dz2     :     0.017468  d :     0.214007
      dxz     :     0.078000
      dyz     :     0.005442
      dx2y2   :     0.041924
      dxy     :     0.071173


                      *****************************
                      * MAYER POPULATION ANALYSIS *
                      *****************************

  NA   - Mulliken gross atomic population
  ZA   - Total nuclear charge
  QA   - Mulliken gross atomic charge
  VA   - Mayer's total valence
  BVA  - Mayer's bonded valence
  FA   - Mayer's free valence

  ATOM       NA         ZA         QA         VA         BVA        FA
  0 P     15.2437    15.0000    -0.2437     2.9513     2.9513     0.0000
  1 H      0.9200     1.0000     0.0800     0.9810     0.9810     0.0000
  2 H      0.9187     1.0000     0.0813     0.9794     0.9794    -0.0000
  3 H      0.9177     1.0000     0.0823     0.9782     0.9782     0.0000

  Mayer bond orders larger than 0.100000
B(  0-P ,  1-H ) :   0.9847 B(  0-P ,  2-H ) :   0.9839 B(  0-P ,  3-H ) :   0.9827 


-------
TIMINGS
-------

Total SCF time: 0 days 0 hours 0 min 1 sec 

Total time                  ....       1.420 sec
Sum of individual times     ....       1.300 sec  ( 91.6%)

Fock matrix formation       ....       1.186 sec  ( 83.5%)
  Split-RI-J                ....       0.186 sec  ( 15.7% of F)
  Chain of spheres X        ....       0.988 sec  ( 83.3% of F)
Diagonalization             ....       0.015 sec  (  1.0%)
Density matrix formation    ....       0.001 sec  (  0.1%)
Population analysis         ....       0.006 sec  (  0.4%)
Initial guess               ....       0.009 sec  (  0.7%)
Orbital Transformation      ....       0.000 sec  (  0.0%)
Orbital Orthonormalization  ....       0.000 sec  (  0.0%)
DIIS solution               ....       0.010 sec  (  0.7%)
SOSCF solution              ....       0.009 sec  (  0.6%)

Maximum memory used throughout the entire SCF-calculation: 62.2 MB


           ************************************************************
           *        Program running with 6 parallel MPI-processes     *
           *              working on a common directory               *
           ************************************************************

------------------------------------------------------------------------------
                                ORCA  MP2 
------------------------------------------------------------------------------

Freezing NCore=10 chemical core electrons
MP2 will be done in the AO integral direct mode
The Q1-step will be done using symmetric double matrices
Dimension of the basis                    ...  119
Memory devoted for MP2                    ... 2000 MB   
Memory needed for all in one shot         ...    7 MB
Number of MOs that can be treated together...  307      
MP2 density construction                  ... unrelaxed
Total number of MOs              ...    4
Number of MOs treated per batch  ...    1 
Number of batches necessary      ...    1 
OPERATORS   0/  0 PASS   0
-----------------------------------------------
 MP2 CORRELATION ENERGY   :     -0.173571078 Eh
-----------------------------------------------


---------------------
MP2 DENSITY FORMATION
---------------------

Completing the external part of the density      ... done
Storing the unrelaxed density                    ... done


                *********************************************
                * UNRELAXED MP2 DENSITY POPULATION ANALYSIS *
                *********************************************

------------------------------------------------------------------------------
                           ORCA POPULATION ANALYSIS
------------------------------------------------------------------------------
Input electron density              ... phosphine_MP2.pmp2ur
BaseName (.gbw .S,...)              ... phosphine_MP2

                    ********************************
                    * MULLIKEN POPULATION ANALYSIS *
                    ********************************

-----------------------
MULLIKEN ATOMIC CHARGES
-----------------------
   0 P :   -0.244108
   1 H :    0.080212
   2 H :    0.081467
   3 H :    0.082429
Sum of atomic charges:    0.0000000

--------------------------------
MULLIKEN REDUCED ORBITAL CHARGES
--------------------------------
  0 P s       :     5.564538  s :     5.564538
      pz      :     3.267247  p :     9.361046
      px      :     3.022341
      py      :     3.071457
      dz2     :     0.095337  d :     0.293217
      dxz     :     0.030960
      dyz     :     0.038789
      dx2y2   :     0.106086
      dxy     :     0.022044
      f0      :     0.005629  f :     0.025307
      f+1     :     0.003316
      f-1     :     0.003754
      f+2     :     0.003299
      f-2     :     0.001601
      f+3     :     0.003676
      f-3     :     0.004030
  1 H s       :     0.904745  s :     0.904745
      pz      :     0.002478  p :     0.013948
      px      :    -0.000357
      py      :     0.011827
      dz2     :     0.000132  d :     0.001094
      dxz     :     0.000281
      dyz     :     0.000326
      dx2y2   :    -0.000045
      dxy     :     0.000401
  2 H s       :     0.903842  s :     0.903842
      pz      :     0.011182  p :     0.013631
      px      :    -0.000417
      py      :     0.002866
      dz2     :     0.000880  d :     0.001061
      dxz     :     0.000683
      dyz     :     0.000475
      dx2y2   :    -0.000977
      dxy     :    -0.000001
  3 H s       :     0.903069  s :     0.903069
      pz      :     0.002461  p :     0.013407
      px      :     0.012459
      py      :    -0.001513
      dz2     :     0.000127  d :     0.001096
      dxz     :     0.000422
      dyz     :     0.000197
      dx2y2   :     0.000389
      dxy     :    -0.000038


                     *******************************
                     * LOEWDIN POPULATION ANALYSIS *
                     *******************************

----------------------
LOEWDIN ATOMIC CHARGES
----------------------
   0 P :    1.305515
   1 H :   -0.435187
   2 H :   -0.435175
   3 H :   -0.435153

-------------------------------
LOEWDIN REDUCED ORBITAL CHARGES
-------------------------------
  0 P s       :     4.757317  s :     4.757317
      pz      :     2.947637  p :     8.458555
      px      :     2.734201
      py      :     2.776717
      dz2     :     0.115957  d :     0.387698
      dxz     :     0.034764
      dyz     :     0.054328
      dx2y2   :     0.148093
      dxy     :     0.034556
      f0      :     0.017806  f :     0.090915
      f+1     :     0.012269
      f-1     :     0.015542
      f+2     :     0.009222
      f-2     :     0.003842
      f+3     :     0.018606
      f-3     :     0.013627
  1 H s       :     0.820792  s :     0.820792
      pz      :     0.124236  p :     0.400225
      px      :     0.093868
      py      :     0.182122
      dz2     :     0.017964  d :     0.214169
      dxz     :     0.002942
      dyz     :     0.080180
      dx2y2   :     0.057261
      dxy     :     0.055823
  2 H s       :     0.820763  s :     0.820763
      pz      :     0.201976  p :     0.400233
      px      :     0.093877
      py      :     0.104380
      dz2     :     0.080778  d :     0.214179
      dxz     :     0.049833
      dyz     :     0.053877
      dx2y2   :     0.020770
      dxy     :     0.008922
  3 H s       :     0.820784  s :     0.820784
      pz      :     0.124247  p :     0.400207
      px      :     0.178964
      py      :     0.096996
      dz2     :     0.017949  d :     0.214162
      dxz     :     0.077291
      dyz     :     0.005844
      dx2y2   :     0.042400
      dxy     :     0.070679


                      *****************************
                      * MAYER POPULATION ANALYSIS *
                      *****************************

  NA   - Mulliken gross atomic population
  ZA   - Total nuclear charge
  QA   - Mulliken gross atomic charge
  VA   - Mayer's total valence
  BVA  - Mayer's bonded valence
  FA   - Mayer's free valence

  ATOM       NA         ZA         QA         VA         BVA        FA
  0 P     15.2441    15.0000    -0.2441     3.2011     2.8080     0.3932
  1 H      0.9198     1.0000     0.0802     0.9957     0.9330     0.0627
  2 H      0.9185     1.0000     0.0815     0.9941     0.9315     0.0626
  3 H      0.9176     1.0000     0.0824     0.9930     0.9304     0.0626

  Mayer bond orders larger than 0.100000
B(  0-P ,  1-H ) :   0.9369 B(  0-P ,  2-H ) :   0.9361 B(  0-P ,  3-H ) :   0.9349 



---------------------------------------
MP2 TOTAL ENERGY:     -342.661438604 Eh
---------------------------------------

Maximum memory used throughout the entire MP2-calculation: 96.4 MB

-------------------------   --------------------
FINAL SINGLE POINT ENERGY      -342.661438604197
-------------------------   --------------------


                            ***************************************
                            *     ORCA property calculations      *
                            ***************************************

                                    ---------------------
                                    Active property flags
                                    ---------------------
   (+) Dipole Moment


------------------------------------------------------------------------------
                       ORCA ELECTRIC PROPERTIES CALCULATION
------------------------------------------------------------------------------

Dipole Moment Calculation                       ... on
Quadrupole Moment Calculation                   ... off
Polarizability Calculation                      ... off
GBWName                                         ... phosphine_MP2.gbw
Electron density                                ... phosphine_MP2.scfp
The origin for moment calculation is the CENTER OF MASS  = (-0.131918, -0.186398  0.322990)

-------------
DIPOLE MOMENT
-------------
                                X             Y             Z
Electronic contribution:     -0.59379      -0.83962       1.45418
Nuclear contribution   :      0.68242       0.96474      -1.67130
                        -----------------------------------------
Total Dipole Moment    :      0.08863       0.12511      -0.21712
                        -----------------------------------------
Magnitude (a.u.)       :      0.26580
Magnitude (Debye)      :      0.67561



--------------------
Rotational spectrum 
--------------------
 
Rotational constants in cm-1:     4.445043     4.444854     3.936882 
Rotational constants in MHz : 133259.033668 133253.369889 118024.763384 

 Dipole components along the rotational axes: 
x,y,z [a.u.] :    -0.000089     0.000052    -0.265800 
x,y,z [Debye]:    -0.000227     0.000133    -0.675609 

 

                         *** MP2 UNRELAXED DENSITY ***

------------------------------------------------------------------------------
                       ORCA ELECTRIC PROPERTIES CALCULATION
------------------------------------------------------------------------------

Dipole Moment Calculation                       ... on
Quadrupole Moment Calculation                   ... off
Polarizability Calculation                      ... off
GBWName                                         ... phosphine_MP2.gbw
Electron density                                ... phosphine_MP2.pmp2ur
The origin for moment calculation is the CENTER OF MASS  = (-0.131918, -0.186398  0.322990)

-------------
DIPOLE MOMENT
-------------
                                X             Y             Z
Electronic contribution:     -0.59356      -0.83929       1.45361
Nuclear contribution   :      0.68242       0.96474      -1.67130
                        -----------------------------------------
Total Dipole Moment    :      0.08886       0.12545      -0.21769
                        -----------------------------------------
Magnitude (a.u.)       :      0.26650
Magnitude (Debye)      :      0.67739



--------------------
Rotational spectrum 
--------------------
 
Rotational constants in cm-1:     4.445043     4.444854     3.936882 
Rotational constants in MHz : 133259.033668 133253.369889 118024.763384 

 Dipole components along the rotational axes: 
x,y,z [a.u.] :    -0.000088     0.000044    -0.266500 
x,y,z [Debye]:    -0.000223     0.000113    -0.677389 

 

Timings for individual modules:

Sum of individual times         ...        3.870 sec (=   0.064 min)
GTO integral calculation        ...        0.222 sec (=   0.004 min)   5.7 %
SCF iterations                  ...        1.531 sec (=   0.026 min)  39.6 %
MP2 module                      ...        2.117 sec (=   0.035 min)  54.7 %
                             ****ORCA TERMINATED NORMALLY****
TOTAL RUN TIME: 0 days 0 hours 0 minutes 4 seconds 79 msec
