
                                 *****************
                                 * O   R   C   A *
                                 *****************

                                            #,                                       
                                            ###                                      
                                            ####                                     
                                            #####                                    
                                            ######                                   
                                           ########,                                 
                                     ,,################,,,,,                         
                               ,,#################################,,                 
                          ,,##########################################,,             
                       ,#########################################, ''#####,          
                    ,#############################################,,   '####,        
                  ,##################################################,,,,####,       
                ,###########''''           ''''###############################       
              ,#####''   ,,,,##########,,,,          '''####'''          '####       
            ,##' ,,,,###########################,,,                        '##       
           ' ,,###''''                  '''############,,,                           
         ,,##''                                '''############,,,,        ,,,,,,###''
      ,#''                                            '''#######################'''  
     '                                                          ''''####''''         
             ,#######,   #######,   ,#######,      ##                                
            ,#'     '#,  ##    ##  ,#'     '#,    #''#        ######   ,####,        
            ##       ##  ##   ,#'  ##            #'  '#       #        #'  '#        
            ##       ##  #######   ##           ,######,      #####,   #    #        
            '#,     ,#'  ##    ##  '#,     ,#' ,#      #,         ##   #,  ,#        
             '#######'   ##     ##  '#######'  #'      '#     #####' # '####'        



                  #######################################################
                  #                        -***-                        #
                  #          Department of theory and spectroscopy      #
                  #    Directorship and core code : Frank Neese         #
                  #        Max Planck Institute fuer Kohlenforschung    #
                  #                Kaiser Wilhelm Platz 1               #
                  #                 D-45470 Muelheim/Ruhr               #
                  #                      Germany                        #
                  #                                                     #
                  #                  All rights reserved                #
                  #                        -***-                        #
                  #######################################################


                         Program Version 5.0.1 -  RELEASE  -


 With contributions from (in alphabetic order):
   Daniel Aravena         : Magnetic Suceptibility
   Michael Atanasov       : Ab Initio Ligand Field Theory (pilot matlab implementation)
   Alexander A. Auer      : GIAO ZORA, VPT2 properties, NMR spectrum
   Ute Becker             : Parallelization
   Giovanni Bistoni       : ED, misc. LED, open-shell LED, HFLD
   Martin Brehm           : Molecular dynamics
   Dmytro Bykov           : SCF Hessian
   Vijay G. Chilkuri      : MRCI spin determinant printing, contributions to CSF-ICE
   Dipayan Datta          : RHF DLPNO-CCSD density
   Achintya Kumar Dutta   : EOM-CC, STEOM-CC
   Dmitry Ganyushin       : Spin-Orbit,Spin-Spin,Magnetic field MRCI
   Miquel Garcia          : C-PCM and meta-GGA Hessian, CC/C-PCM, Gaussian charge scheme
   Yang Guo               : DLPNO-NEVPT2, F12-NEVPT2, CIM, IAO-localization
   Andreas Hansen         : Spin unrestricted coupled pair/coupled cluster methods
   Benjamin Helmich-Paris : MC-RPA, TRAH-SCF, COSX integrals
   Lee Huntington         : MR-EOM, pCC
   Robert Izsak           : Overlap fitted RIJCOSX, COSX-SCS-MP3, EOM
   Marcus Kettner         : VPT2
   Christian Kollmar      : KDIIS, OOCD, Brueckner-CCSD(T), CCSD density, CASPT2, CASPT2-K
   Simone Kossmann        : Meta GGA functionals, TD-DFT gradient, OOMP2, MP2 Hessian
   Martin Krupicka        : Initial AUTO-CI
   Lucas Lang             : DCDCAS
   Marvin Lechner         : AUTO-CI (C++ implementation), FIC-MRCC
   Dagmar Lenk            : GEPOL surface, SMD
   Dimitrios Liakos       : Extrapolation schemes; Compound Job, initial MDCI parallelization
   Dimitrios Manganas     : Further ROCIS development; embedding schemes
   Dimitrios Pantazis     : SARC Basis sets
   Anastasios Papadopoulos: AUTO-CI, single reference methods and gradients
   Taras Petrenko         : DFT Hessian,TD-DFT gradient, ASA, ECA, R-Raman, ABS, FL, XAS/XES, NRVS
   Peter Pinski           : DLPNO-MP2, DLPNO-MP2 Gradient
   Christoph Reimann      : Effective Core Potentials
   Marius Retegan         : Local ZFS, SOC
   Christoph Riplinger    : Optimizer, TS searches, QM/MM, DLPNO-CCSD(T), (RO)-DLPNO pert. Triples
   Tobias Risthaus        : Range-separated hybrids, TD-DFT gradient, RPA, STAB
   Michael Roemelt        : Original ROCIS implementation
   Masaaki Saitow         : Open-shell DLPNO-CCSD energy and density
   Barbara Sandhoefer     : DKH picture change effects
   Avijit Sen             : IP-ROCIS
   Kantharuban Sivalingam : CASSCF convergence, NEVPT2, FIC-MRCI
   Bernardo de Souza      : ESD, SOC TD-DFT
   Georgi Stoychev        : AutoAux, RI-MP2 NMR, DLPNO-MP2 response
   Willem Van den Heuvel  : Paramagnetic NMR
   Boris Wezisla          : Elementary symmetry handling
   Frank Wennmohs         : Technical directorship


 We gratefully acknowledge several colleagues who have allowed us to
 interface, adapt or use parts of their codes:
   Stefan Grimme, W. Hujo, H. Kruse, P. Pracht,  : VdW corrections, initial TS optimization,
                  C. Bannwarth, S. Ehlert          DFT functionals, gCP, sTDA/sTD-DF
   Ed Valeev, F. Pavosevic, A. Kumar             : LibInt (2-el integral package), F12 methods
   Garnet Chan, S. Sharma, J. Yang, R. Olivares  : DMRG
   Ulf Ekstrom                                   : XCFun DFT Library
   Mihaly Kallay                                 : mrcc  (arbitrary order and MRCC methods)
   Jiri Pittner, Ondrej Demel                    : Mk-CCSD
   Frank Weinhold                                : gennbo (NPA and NBO analysis)
   Christopher J. Cramer and Donald G. Truhlar   : smd solvation model
   Lars Goerigk                                  : TD-DFT with DH, B97 family of functionals
   V. Asgeirsson, H. Jonsson                     : NEB implementation
   FAccTs GmbH                                   : IRC, NEB, NEB-TS, DLPNO-Multilevel, CI-OPT
                                                   MM, QMMM, 2- and 3-layer-ONIOM, Crystal-QMMM,
                                                   LR-CPCM, SF, NACMEs, symmetry and pop. for TD-DFT,
                                                   nearIR, NL-DFT gradient (VV10), updates on ESD,
                                                   ML-optimized integration grids
   S Lehtola, MJT Oliveira, MAL Marques          : LibXC Library
   Liviu Ungur et al                             : ANISO software


 Your calculation uses the libint2 library for the computation of 2-el integrals
 For citations please refer to: http://libint.valeyev.net

 Your ORCA version has been built with support for libXC version: 5.1.0
 For citations please refer to: https://tddft.org/programs/libxc/

 This ORCA versions uses:
   CBLAS   interface :  Fast vector & matrix operations
   LAPACKE interface :  Fast linear algebra routines
   SCALAPACK package :  Parallel linear algebra routines
   Shared memory     :  Shared parallel matrices
   BLAS/LAPACK       :  OpenBLAS 0.3.15  USE64BITINT DYNAMIC_ARCH NO_AFFINITY Zen SINGLE_THREADED
        Core in use  :  Zen
   Copyright (c) 2011-2014, The OpenBLAS Project




***************************************
The coordinates will be read from file: ammonia.xyz
***************************************


================================================================================

----- Orbital basis set information -----
Your calculation utilizes the basis: aug-cc-pVTZ 
    H, B-Ne : Obtained from the ccRepo (grant-hill.group.shef.ac.uk/ccrepo) Feb. 2017
              R. A. Kendall, T. H. Dunning, Jr., R. J. Harrison, J. Chem. Phys. 96, 6796 (1992)
         He : Obtained from the ccRepo (grant-hill.group.shef.ac.uk/ccrepo) Feb. 2017
              D. E. Woon, T. H. Dunning, Jr., J. Chem. Phys. 100, 2975 (1994)
  Li-Be, Na : Obtained from the ccRepo (grant-hill.group.shef.ac.uk/ccrepo) Feb. 2017
              B. P. Prascher, D. E. Woon, K. A. Peterson, T. H. Dunning, Jr., A. K. Wilson, Theor. Chem. Acc. 128, 69 (2011)
         Mg : Obtained from the Peterson Research Group Website (tyr0.chem.wsu.edu/~kipeters) Feb. 2017
              B. P. Prascher, D. E. Woon, K. A. Peterson, T. H. Dunning, Jr., A. K. Wilson, Theor. Chem. Acc. 128, 69 (2011)
      Al-Ar : Obtained from the ccRepo (grant-hill.group.shef.ac.uk/ccrepo) Feb. 2017
              D. E. Woon, T. H. Dunning, Jr., J. Chem. Phys. 98, 1358 (1993)
      Sc-Zn : Obtained from the ccRepo (grant-hill.group.shef.ac.uk/ccrepo) Feb. 2017
              N. B. Balabanov, K. A. Peterson, J. Chem. Phys. 123, 064107 (2005)
              N. B. Balabanov, K. A. Peterson, J. Chem. Phys. 125, 074110 (2006)
      Ga-Kr : Obtained from the ccRepo (grant-hill.group.shef.ac.uk/ccrepo) Feb. 2017
              A. K. Wilson, D. E. Woon, K. A. Peterson, T. H. Dunning, Jr., J. Chem. Phys. 110, 7667 (1999)
     Ag, Au : Obtained from the Peterson Research Group Website (tyr0.chem.wsu.edu/~kipeters) Feb. 2017
              K. A. Peterson, C. Puzzarini, Theor. Chem. Acc. 114, 283 (2005)

----- AuxJ basis set information -----
Your calculation utilizes the auxiliary basis: def2/J
   F. Weigend, Phys. Chem. Chem. Phys. 8, 1057 (2006).

================================================================================
                                        WARNINGS
                       Please study these warnings very carefully!
================================================================================


INFO   : the flag for use of the SHARK integral package has been found!

================================================================================
                                       INPUT FILE
================================================================================
NAME = ammonia_HF.inp
|  1> 
|  2> %pal
|  3>   nprocs 6
|  4> end
|  5> %maxcore 2000
|  6> 
|  7> ! HF aug-cc-pVTZ VeryTightSCF
|  8> ! RIJCOSX def2/J
|  9> 
| 10> * xyzfile 0 1 ammonia.xyz
| 11> 
| 12> 
| 13>                          ****END OF INPUT****
================================================================================

                       ****************************
                       * Single Point Calculation *
                       ****************************

---------------------------------
CARTESIAN COORDINATES (ANGSTROEM)
---------------------------------
  N     -0.008597   -0.012177    0.021074
  H     -0.326859   -0.462229   -0.828075
  H     -0.326855    0.948260   -0.013741
  H      1.002981    0.007926   -0.013728

----------------------------
CARTESIAN COORDINATES (A.U.)
----------------------------
  NO LB      ZA    FRAG     MASS         X           Y           Z
   0 N     7.0000    0    14.007   -0.016246   -0.023011    0.039825
   1 H     1.0000    0     1.008   -0.617673   -0.873487   -1.564835
   2 H     1.0000    0     1.008   -0.617667    1.791952   -0.025967
   3 H     1.0000    0     1.008    1.895360    0.014978   -0.025943

--------------------------------
INTERNAL COORDINATES (ANGSTROEM)
--------------------------------
 N      0   0   0     0.000000000000     0.00000000     0.00000000
 H      1   0   0     1.012369381197     0.00000000     0.00000000
 H      1   2   0     1.012393023693   107.10161658     0.00000000
 H      1   2   3     1.012376414795   107.10463946   245.37875854

---------------------------
INTERNAL COORDINATES (A.U.)
---------------------------
 N      0   0   0     0.000000000000     0.00000000     0.00000000
 H      1   0   0     1.913100876829     0.00000000     0.00000000
 H      1   2   0     1.913145554672   107.10161658     0.00000000
 H      1   2   3     1.913114168404   107.10463946   245.37875854

---------------------
BASIS SET INFORMATION
---------------------
There are 2 groups of distinct atoms

 Group   1 Type N   : 19s6p3d2f contracted to 5s4p3d2f pattern {88111/3111/111/11}
 Group   2 Type H   : 6s3p2d contracted to 4s3p2d pattern {3111/111/11}

Atom   0N    basis set group =>   1
Atom   1H    basis set group =>   2
Atom   2H    basis set group =>   2
Atom   3H    basis set group =>   2
---------------------------------
AUXILIARY/J BASIS SET INFORMATION
---------------------------------
There are 2 groups of distinct atoms

 Group   1 Type N   : 12s5p4d2f1g contracted to 6s4p3d1f1g pattern {711111/2111/211/2/1}
 Group   2 Type H   : 5s2p1d contracted to 3s1p1d pattern {311/2/1}

Atom   0N    basis set group =>   1
Atom   1H    basis set group =>   2
Atom   2H    basis set group =>   2
Atom   3H    basis set group =>   2


           ************************************************************
           *        Program running with 6 parallel MPI-processes     *
           *              working on a common directory               *
           ************************************************************
------------------------------------------------------------------------------
                           ORCA GTO INTEGRAL CALCULATION
                           -- RI-GTO INTEGRALS CHOSEN --
------------------------------------------------------------------------------
------------------------------------------------------------------------------
                   ___                                                        
                  /   \      - P O W E R E D   B Y -                         
                 /     \                                                     
                 |  |  |   _    _      __       _____    __    __             
                 |  |  |  | |  | |    /  \     |  _  \  |  |  /  |          
                  \  \/   | |  | |   /    \    | | | |  |  | /  /          
                 / \  \   | |__| |  /  /\  \   | |_| |  |  |/  /          
                |  |  |   |  __  | /  /__\  \  |    /   |      \           
                |  |  |   | |  | | |   __   |  |    \   |  |\   \          
                \     /   | |  | | |  |  |  |  | |\  \  |  | \   \       
                 \___/    |_|  |_| |__|  |__|  |_| \__\ |__|  \__/        
                                                                              
                      - O R C A' S   B I G   F R I E N D -                    
                                      &                                       
                       - I N T E G R A L  F E E D E R -                       
                                                                              
 v1 FN, 2020, v2 2021                                                         
------------------------------------------------------------------------------


Reading SHARK input file ammonia_HF.SHARKINP.tmp ... ok
----------------------
SHARK INTEGRAL PACKAGE
----------------------

Number of atoms                             ...      4
Number of basis functions                   ...    115
Number of shells                            ...     41
Maximum angular momentum                    ...      3
Integral batch strategy                     ... SHARK/LIBINT Hybrid
RI-J (if used) integral strategy            ... SPLIT-RIJ (Revised 2003 algorithm where possible)
Printlevel                                  ...      1
Contraction scheme used                     ... SEGMENTED contraction
Coulomb Range Separation                    ... NOT USED
Exchange Range Separation                   ... NOT USED
Finite Nucleus Model                        ... NOT USED
Auxiliary Coulomb fitting basis             ... AVAILABLE
   # of basis functions in Aux-J            ...     82
   # of shells in Aux-J                     ...     30
   Maximum angular momentum in Aux-J        ...      4
Auxiliary J/K fitting basis                 ... NOT available
Auxiliary Correlation fitting basis         ... NOT available
Auxiliary 'external' fitting basis          ... NOT available
Integral threshold                          ...     1.000000e-12
Primitive cut-off                           ...     1.000000e-14
Primitive pair pre-selection threshold      ...     1.000000e-14

Calculating pre-screening integrals         ... done (  0.0 sec) Dimension = 41
Organizing shell pair data                  ... done (  0.0 sec)
Shell pair information
Total number of shell pairs                 ...       861
Shell pairs after pre-screening             ...       861
Total number of primitive shell pairs       ...      2084
Primitive shell pairs kept                  ...      2039
          la=0 lb=0:    153 shell pairs
          la=1 lb=0:    221 shell pairs
          la=1 lb=1:     91 shell pairs
          la=2 lb=0:    153 shell pairs
          la=2 lb=1:    117 shell pairs
          la=2 lb=2:     45 shell pairs
          la=3 lb=0:     34 shell pairs
          la=3 lb=1:     26 shell pairs
          la=3 lb=2:     18 shell pairs
          la=3 lb=3:      3 shell pairs

Calculating one electron integrals          ... done (  0.0 sec)
Calculating RI/J V-Matrix + Cholesky decomp.... done (  0.0 sec)
Calculating Nuclear repulsion               ... done (  0.0 sec) ENN=     11.951555599482 Eh

SHARK setup successfully completed in   0.1 seconds

Maximum memory used throughout the entire GTOINT-calculation: 17.2 MB


           ************************************************************
           *        Program running with 6 parallel MPI-processes     *
           *              working on a common directory               *
           ************************************************************
-------------------------------------------------------------------------------
                                 ORCA SCF
-------------------------------------------------------------------------------

------------
SCF SETTINGS
------------
Hamiltonian:
 Ab initio Hamiltonian  Method          .... Hartree-Fock(GTOs)
 RI-approximation to the Coulomb term is turned on
   Number of AuxJ basis functions       .... 82
   RIJ-COSX (HFX calculated with COS-X)).... on


General Settings:
 Integral files         IntName         .... ammonia_HF
 Hartree-Fock type      HFTyp           .... RHF
 Total Charge           Charge          ....    0
 Multiplicity           Mult            ....    1
 Number of Electrons    NEL             ....   10
 Basis Dimension        Dim             ....  115
 Nuclear Repulsion      ENuc            ....     11.9515555995 Eh

Convergence Acceleration:
 DIIS                   CNVDIIS         .... on
   Start iteration      DIISMaxIt       ....    12
   Startup error        DIISStart       ....  0.200000
   # of expansion vecs  DIISMaxEq       ....     5
   Bias factor          DIISBfac        ....   1.050
   Max. coefficient     DIISMaxC        ....  10.000
 Trust-Rad. Augm. Hess. CNVTRAH         .... auto
   Auto Start mean grad. ratio tolernc. ....  1.125000
   Auto Start start iteration           ....    20
   Auto Start num. interpolation iter.  ....    10
   Max. Number of Micro iterations      ....    16
   Max. Number of Macro iterations      .... Maxiter - #DIIS iter
   Number of Davidson start vectors     ....     2
   Converg. threshold I  (grad. norm)   ....   2.000e-06
   Converg. threshold II (energy diff.) ....   1.000e-09
   Grad. Scal. Fac. for Micro threshold ....   0.100
   Minimum threshold for Micro iter.    ....   0.010
   NR start threshold (gradient norm)   ....   0.001
   Initial trust radius                 ....   0.400
   Minimum AH scaling param. (alpha)    ....   1.000
   Maximum AH scaling param. (alpha)    .... 1000.000
   Orbital update algorithm             .... Taylor
   White noise on init. David. guess    .... on
   Maximum white noise                  ....   0.010
   Quad. conv. algorithm                .... NR
 SOSCF                  CNVSOSCF        .... on
   Start iteration      SOSCFMaxIt      ....   150
   Startup grad/error   SOSCFStart      ....  0.003300
 Level Shifting         CNVShift        .... on
   Level shift para.    LevelShift      ....    0.2500
   Turn off err/grad.   ShiftErr        ....    0.0010
 Zerner damping         CNVZerner       .... off
 Static damping         CNVDamp         .... on
   Fraction old density DampFac         ....    0.7000
   Max. Damping (<1)    DampMax         ....    0.9800
   Min. Damping (>=0)   DampMin         ....    0.0000
   Turn off err/grad.   DampErr         ....    0.1000
 Fernandez-Rico         CNVRico         .... off

SCF Procedure:
 Maximum # iterations   MaxIter         ....   125
 SCF integral mode      SCFMode         .... Direct
   Integral package                     .... SHARK and LIBINT hybrid scheme
 Reset frequency        DirectResetFreq ....    20
 Integral Threshold     Thresh          ....  1.000e-12 Eh
 Primitive CutOff       TCut            ....  1.000e-14 Eh

Convergence Tolerance:
 Convergence Check Mode ConvCheckMode   .... Total+1el-Energy
 Convergence forced     ConvForced      .... 0
 Energy Change          TolE            ....  1.000e-09 Eh
 1-El. energy change                    ....  1.000e-06 Eh
 Orbital Gradient       TolG            ....  2.000e-06
 Orbital Rotation angle TolX            ....  2.000e-06
 DIIS Error             TolErr          ....  1.000e-08


Diagonalization of the overlap matrix:
Smallest eigenvalue                        ... 2.707e-04
Time for diagonalization                   ...    0.001 sec
Threshold for overlap eigenvalues          ... 1.000e-08
Number of eigenvalues below threshold      ... 0
Time for construction of square roots      ...    0.001 sec
Total time needed                          ...    0.006 sec

Time for model grid setup =    0.011 sec

------------------------------
INITIAL GUESS: MODEL POTENTIAL
------------------------------
Loading Hartree-Fock densities                     ... done
Calculating cut-offs                               ... done
Initializing the effective Hamiltonian             ... done
Setting up the integral package (SHARK)            ... done
Starting the Coulomb interaction                   ... done (   0.0 sec)
Reading the grid                                   ... done
Mapping shells                                     ... done
Starting the XC term evaluation                    ... done (   0.0 sec)
Transforming the Hamiltonian                       ... done (   0.0 sec)
Diagonalizing the Hamiltonian                      ... done (   0.0 sec)
Back transforming the eigenvectors                 ... done (   0.0 sec)
Now organizing SCF variables                       ... done
                      ------------------
                      INITIAL GUESS DONE (   0.0 sec)
                      ------------------
--------------------
COSX GRID GENERATION
--------------------

GRIDX 1
-------
General Integration Accuracy     IntAcc      ... 3.816
Radial Grid Type                 RadialGrid  ... OptM3 with GC (2021)
Angular Grid (max. ang.)         AngularGrid ... 1 (Lebedev-50)
Angular grid pruning method      GridPruning ... 4 (adaptive)
Weight generation scheme         WeightScheme... Becke
Basis function cutoff            BFCut       ... 1.0000e-12
Integration weight cutoff        WCut        ... 1.0000e-14
Angular grids for H and He will be reduced by one unit
Partially contracted basis set               ... on
Rotationally invariant grid construction     ... off

Total number of grid points                  ...     2143
Total number of batches                      ...       36
Average number of points per batch           ...       59
Average number of grid points per atom       ...      536
UseSFitting                                  ... on

GRIDX 2
-------
General Integration Accuracy     IntAcc      ... 4.020
Radial Grid Type                 RadialGrid  ... OptM3 with GC (2021)
Angular Grid (max. ang.)         AngularGrid ... 2 (Lebedev-110)
Angular grid pruning method      GridPruning ... 4 (adaptive)
Weight generation scheme         WeightScheme... Becke
Basis function cutoff            BFCut       ... 1.0000e-12
Integration weight cutoff        WCut        ... 1.0000e-14
Angular grids for H and He will be reduced by one unit
Partially contracted basis set               ... on
Rotationally invariant grid construction     ... off

Total number of grid points                  ...     5037
Total number of batches                      ...       80
Average number of points per batch           ...       62
Average number of grid points per atom       ...     1259
UseSFitting                                  ... on

GRIDX 3
-------
General Integration Accuracy     IntAcc      ... 4.338
Radial Grid Type                 RadialGrid  ... OptM3 with GC (2021)
Angular Grid (max. ang.)         AngularGrid ... 3 (Lebedev-194)
Angular grid pruning method      GridPruning ... 4 (adaptive)
Weight generation scheme         WeightScheme... Becke
Basis function cutoff            BFCut       ... 1.0000e-12
Integration weight cutoff        WCut        ... 1.0000e-14
Angular grids for H and He will be reduced by one unit
Partially contracted basis set               ... on
Rotationally invariant grid construction     ... off

Total number of grid points                  ...    11720
Total number of batches                      ...      185
Average number of points per batch           ...       63
Average number of grid points per atom       ...     2930
UseSFitting                                  ... on

Time for X-Grid setup             =    0.086 sec

 re-compute Schwartz prescreening matrix in partically contracted basis (1) ...done (   0.125 sec)
--------------
SCF ITERATIONS
--------------
ITER       Energy         Delta-E        Max-DP      RMS-DP      [F,P]     Damp
               ***  Starting incremental Fock matrix formation  ***
  0    -56.0789054303   0.000000000000 0.03082778  0.00090852  0.3968898 0.7000
  1    -56.1344556862  -0.055550255965 0.02005816  0.00064860  0.2380599 0.7000
                               ***Turning on DIIS***
  2    -56.1644534097  -0.029997723434 0.01359792  0.00037807  0.1273389 0.7000
  3    -56.3521427178  -0.187689308116 0.03553973  0.00068018  0.0787748 0.0000
  4    -56.1793630731   0.172779644695 0.00627987  0.00013029  0.0151921 0.0000
                      *** Initiating the SOSCF procedure ***
                           *** Shutting down DIIS ***
                      *** Re-Reading the Fockian *** 
                      *** Removing any level shift *** 
ITER      Energy       Delta-E        Grad      Rot      Max-DP    RMS-DP
  5    -56.21575537  -0.0363923009  0.001150  0.001150  0.001633  0.000038
               *** Restarting incremental Fock matrix formation ***
  6    -56.22047413  -0.0047187563  0.000528  0.000897  0.000958  0.000032
  7    -56.22048040  -0.0000062665  0.000234  0.000749  0.001054  0.000022
  8    -56.22048164  -0.0000012478  0.000073  0.000042  0.000124  0.000005
  9    -56.22048178  -0.0000001379  0.000016  0.000026  0.000017  0.000001
 10    -56.22048179  -0.0000000052  0.000003  0.000009  0.000013  0.000000
 11    -56.22048179   0.0000000008  0.000001  0.000003  0.000004  0.000000
                  ***Gradient check signals convergence***
              ***Rediagonalizing the Fockian in SOSCF/NRSCF***

               *****************************************************
               *                     SUCCESS                       *
               *           SCF CONVERGED AFTER  12 CYCLES          *
               *****************************************************

Old exchange energy                            =     -7.667416395 Eh
New exchange energy                            =     -7.667422185 Eh
Exchange energy change after final integration =     -0.000005791 Eh
Total energy after final integration           =    -56.220487577 Eh
Final COS-X integration done in                =     0.213 sec

----------------
TOTAL SCF ENERGY
----------------

Total Energy       :          -56.22048758 Eh           -1529.83724 eV

Components:
Nuclear Repulsion  :           11.95155560 Eh             325.21836 eV
Electronic Energy  :          -68.17204318 Eh           -1855.05560 eV
One Electron Energy:          -99.60413338 Eh           -2710.36626 eV
Two Electron Energy:           31.43209020 Eh             855.31066 eV
Max COSX asymmetry :            0.00000385 Eh               0.00010 eV

Virial components:
Potential Energy   :         -112.34532200 Eh           -3057.07163 eV
Kinetic Energy     :           56.12483442 Eh            1527.23439 eV
Virial Ratio       :            2.00170429


---------------
SCF CONVERGENCE
---------------

  Last Energy change         ...    2.7852e-10  Tolerance :   1.0000e-09
  Last MAX-Density change    ...    1.5543e-15  Tolerance :   1.0000e-08
  Last RMS-Density change    ...    1.4682e-17  Tolerance :   1.0000e-09
  Last Orbital Gradient      ...    1.7745e-07  Tolerance :   2.0000e-06
  Last Orbital Rotation      ...    4.6698e-07  Tolerance :   2.0000e-06

             **** THE GBW FILE WAS UPDATED (ammonia_HF.gbw) ****
             **** DENSITY ammonia_HF.scfp WAS UPDATED ****
             **** ENERGY FILE WAS UPDATED (ammonia_HF.en.tmp) ****
             **** THE GBW FILE WAS UPDATED (ammonia_HF.gbw) ****
             **** DENSITY ammonia_HF.scfp WAS UPDATED ****
----------------
ORBITAL ENERGIES
----------------

  NO   OCC          E(Eh)            E(eV) 
   0   2.0000     -15.541550      -422.9071 
   1   2.0000      -1.141691       -31.0670 
   2   2.0000      -0.629173       -17.1207 
   3   2.0000      -0.629144       -17.1199 
   4   2.0000      -0.428414       -11.6577 
   5   0.0000       0.030288         0.8242 
   6   0.0000       0.049459         1.3459 
   7   0.0000       0.049460         1.3459 
   8   0.0000       0.118414         3.2222 
   9   0.0000       0.152726         4.1559 
  10   0.0000       0.162830         4.4308 
  11   0.0000       0.162833         4.4309 
  12   0.0000       0.221766         6.0345 
  13   0.0000       0.221774         6.0348 
  14   0.0000       0.236291         6.4298 
  15   0.0000       0.236294         6.4299 
  16   0.0000       0.254966         6.9380 
  17   0.0000       0.356727         9.7070 
  18   0.0000       0.358265         9.7489 
  19   0.0000       0.371225        10.1015 
  20   0.0000       0.371229        10.1016 
  21   0.0000       0.428435        11.6583 
  22   0.0000       0.461194        12.5497 
  23   0.0000       0.461207        12.5501 
  24   0.0000       0.486906        13.2494 
  25   0.0000       0.486917        13.2497 
  26   0.0000       0.563527        15.3344 
  27   0.0000       0.602994        16.4083 
  28   0.0000       0.602999        16.4084 
  29   0.0000       0.749063        20.3830 
  30   0.0000       0.786386        21.3986 
  31   0.0000       0.786408        21.3992 
  32   0.0000       0.811195        22.0737 
  33   0.0000       0.884440        24.0668 
  34   0.0000       0.901745        24.5377 
  35   0.0000       0.914266        24.8784 
  36   0.0000       0.914276        24.8787 
  37   0.0000       0.982138        26.7253 
  38   0.0000       0.982166        26.7261 
  39   0.0000       1.033861        28.1328 
  40   0.0000       1.034534        28.1511 
  41   0.0000       1.034565        28.1519 
  42   0.0000       1.080913        29.4131 
  43   0.0000       1.103811        30.0362 
  44   0.0000       1.103851        30.0373 
  45   0.0000       1.141509        31.0620 
  46   0.0000       1.141583        31.0641 
  47   0.0000       1.184521        32.2324 
  48   0.0000       1.218462        33.1561 
  49   0.0000       1.218473        33.1563 
  50   0.0000       1.320662        35.9370 
  51   0.0000       1.365271        37.1509 
  52   0.0000       1.365299        37.1517 
  53   0.0000       1.616187        43.9787 
  54   0.0000       1.757386        47.8209 
  55   0.0000       1.757440        47.8224 
  56   0.0000       1.760277        47.8996 
  57   0.0000       1.864302        50.7302 
  58   0.0000       1.865159        50.7536 
  59   0.0000       1.865257        50.7562 
  60   0.0000       2.004244        54.5383 
  61   0.0000       2.040408        55.5223 
  62   0.0000       2.040453        55.5235 
  63   0.0000       2.049292        55.7641 
  64   0.0000       2.049519        55.7702 
  65   0.0000       2.266689        61.6797 
  66   0.0000       2.347990        63.8921 
  67   0.0000       2.374150        64.6039 
  68   0.0000       2.374166        64.6043 
  69   0.0000       2.435740        66.2799 
  70   0.0000       2.435853        66.2829 
  71   0.0000       2.474871        67.3447 
  72   0.0000       3.394742        92.3756 
  73   0.0000       3.563853        96.9774 
  74   0.0000       3.563948        96.9800 
  75   0.0000       3.968836       107.9975 
  76   0.0000       3.968844       107.9977 
  77   0.0000       4.039657       109.9247 
  78   0.0000       4.143624       112.7538 
  79   0.0000       4.143665       112.7549 
  80   0.0000       4.212243       114.6210 
  81   0.0000       4.217294       114.7584 
  82   0.0000       4.258201       115.8715 
  83   0.0000       4.258439       115.8780 
  84   0.0000       4.327676       117.7621 
  85   0.0000       4.361535       118.6834 
  86   0.0000       4.361562       118.6841 
  87   0.0000       4.470609       121.6515 
  88   0.0000       4.549783       123.8059 
  89   0.0000       4.549953       123.8105 
  90   0.0000       4.689480       127.6072 
  91   0.0000       4.749759       129.2475 
  92   0.0000       4.749848       129.2499 
  93   0.0000       4.936303       134.3236 
  94   0.0000       4.936392       134.3261 
  95   0.0000       4.977786       135.4524 
  96   0.0000       5.052441       137.4839 
  97   0.0000       5.066912       137.8777 
  98   0.0000       5.067116       137.8832 
  99   0.0000       5.245274       142.7312 
 100   0.0000       5.663768       154.1190 
 101   0.0000       5.663901       154.1226 
 102   0.0000       5.737653       156.1295 
 103   0.0000       5.897526       160.4799 
 104   0.0000       5.897936       160.4910 
 105   0.0000       6.066438       165.0762 
 106   0.0000       6.312675       171.7766 
 107   0.0000       6.312768       171.7792 
 108   0.0000       6.438465       175.1995 
 109   0.0000       6.636134       180.5784 
 110   0.0000       6.934273       188.6912 
 111   0.0000       6.934562       188.6990 
 112   0.0000       7.684394       209.1030 
 113   0.0000       7.684558       209.1075 
 114   0.0000      17.245352       469.2699 

                    ********************************
                    * MULLIKEN POPULATION ANALYSIS *
                    ********************************

-----------------------
MULLIKEN ATOMIC CHARGES
-----------------------
   0 N :   -0.604368
   1 H :    0.202982
   2 H :    0.201683
   3 H :    0.199703
Sum of atomic charges:    0.0000000

--------------------------------
MULLIKEN REDUCED ORBITAL CHARGES
--------------------------------
  0 N s       :     3.727976  s :     3.727976
      pz      :     1.434533  p :     3.834407
      px      :     1.173721
      py      :     1.226154
      dz2     :     0.013107  d :     0.039606
      dxz     :     0.003125
      dyz     :     0.005144
      dx2y2   :     0.015876
      dxy     :     0.002354
      f0      :     0.000057  f :     0.002379
      f+1     :     0.000608
      f-1     :     0.000700
      f+2     :     0.000026
      f-2     :     0.000181
      f+3     :     0.000613
      f-3     :     0.000195
  1 H s       :     0.705645  s :     0.705645
      pz      :     0.026430  p :     0.078355
      px      :     0.023996
      py      :     0.027929
      dz2     :     0.007622  d :     0.013018
      dxz     :     0.001283
      dyz     :     0.000743
      dx2y2   :     0.002164
      dxy     :     0.001206
  2 H s       :     0.706798  s :     0.706798
      pz      :     0.038163  p :     0.078534
      px      :     0.023649
      py      :     0.016721
      dz2     :     0.000053  d :     0.012985
      dxz     :     0.000326
      dyz     :     0.006810
      dx2y2   :     0.003697
      dxy     :     0.002100
  3 H s       :     0.708325  s :     0.708325
      pz      :     0.038402  p :     0.079052
      px      :     0.014882
      py      :     0.025768
      dz2     :     0.000103  d :     0.012920
      dxz     :     0.007157
      dyz     :     0.000049
      dx2y2   :     0.000739
      dxy     :     0.004872


                     *******************************
                     * LOEWDIN POPULATION ANALYSIS *
                     *******************************

----------------------
LOEWDIN ATOMIC CHARGES
----------------------
   0 N :    1.090515
   1 H :   -0.363528
   2 H :   -0.363508
   3 H :   -0.363480

-------------------------------
LOEWDIN REDUCED ORBITAL CHARGES
-------------------------------
  0 N s       :     2.708840  s :     2.708840
      pz      :     1.077691  p :     3.024209
      px      :     0.961659
      py      :     0.984860
      dz2     :     0.037058  d :     0.148181
      dxz     :     0.009900
      dyz     :     0.019714
      dx2y2   :     0.062838
      dxy     :     0.018671
      f0      :     0.001019  f :     0.028255
      f+1     :     0.006250
      f-1     :     0.006529
      f+2     :     0.000528
      f-2     :     0.002487
      f+3     :     0.008878
      f-3     :     0.002564
  1 H s       :     0.609880  s :     0.609880
      pz      :     0.205540  p :     0.457882
      px      :     0.119033
      py      :     0.133309
      dz2     :     0.099242  d :     0.295765
      dxz     :     0.062878
      dyz     :     0.066594
      dx2y2   :     0.043646
      dxy     :     0.023406
  2 H s       :     0.609874  s :     0.609874
      pz      :     0.141420  p :     0.457877
      px      :     0.119006
      py      :     0.197452
      dz2     :     0.023049  d :     0.295757
      dxz     :     0.006384
      dyz     :     0.101278
      dx2y2   :     0.085121
      dxy     :     0.079925
  3 H s       :     0.609877  s :     0.609877
      pz      :     0.141474  p :     0.457879
      px      :     0.199451
      py      :     0.116954
      dz2     :     0.023044  d :     0.295723
      dxz     :     0.106380
      dyz     :     0.001282
      dx2y2   :     0.059971
      dxy     :     0.105046


                      *****************************
                      * MAYER POPULATION ANALYSIS *
                      *****************************

  NA   - Mulliken gross atomic population
  ZA   - Total nuclear charge
  QA   - Mulliken gross atomic charge
  VA   - Mayer's total valence
  BVA  - Mayer's bonded valence
  FA   - Mayer's free valence

  ATOM       NA         ZA         QA         VA         BVA        FA
  0 N      7.6044     7.0000    -0.6044     2.8735     2.8735     0.0000
  1 H      0.7970     1.0000     0.2030     1.0106     1.0106     0.0000
  2 H      0.7983     1.0000     0.2017     1.0122     1.0122     0.0000
  3 H      0.8003     1.0000     0.1997     1.0143     1.0143    -0.0000

  Mayer bond orders larger than 0.100000
B(  0-N ,  1-H ) :   0.9558 B(  0-N ,  2-H ) :   0.9577 B(  0-N ,  3-H ) :   0.9600 


-------
TIMINGS
-------

Total SCF time: 0 days 0 hours 0 min 2 sec 

Total time                  ....       2.848 sec
Sum of individual times     ....       2.532 sec  ( 88.9%)

Fock matrix formation       ....       2.057 sec  ( 72.2%)
  Split-RI-J                ....       0.314 sec  ( 15.3% of F)
  Chain of spheres X        ....       1.646 sec  ( 80.0% of F)
Diagonalization             ....       0.086 sec  (  3.0%)
Density matrix formation    ....       0.002 sec  (  0.1%)
Population analysis         ....       0.037 sec  (  1.3%)
Initial guess               ....       0.024 sec  (  0.9%)
Orbital Transformation      ....       0.000 sec  (  0.0%)
Orbital Orthonormalization  ....       0.000 sec  (  0.0%)
DIIS solution               ....       0.186 sec  (  6.5%)
SOSCF solution              ....       0.042 sec  (  1.5%)

Maximum memory used throughout the entire SCF-calculation: 60.0 MB

-------------------------   --------------------
FINAL SINGLE POINT ENERGY       -56.220487577271
-------------------------   --------------------


                            ***************************************
                            *     ORCA property calculations      *
                            ***************************************

                                    ---------------------
                                    Active property flags
                                    ---------------------
   (+) Dipole Moment


------------------------------------------------------------------------------
                       ORCA ELECTRIC PROPERTIES CALCULATION
------------------------------------------------------------------------------

Dipole Moment Calculation                       ... on
Quadrupole Moment Calculation                   ... off
Polarizability Calculation                      ... off
GBWName                                         ... ammonia_HF.gbw
Electron density                                ... ammonia_HF.scfp
The origin for moment calculation is the CENTER OF MASS  = ( 0.025702,  0.036322 -0.062935)

-------------
DIPOLE MOMENT
-------------
                                X             Y             Z
Electronic contribution:     -0.08030      -0.11377       0.19703
Nuclear contribution   :      0.28927       0.40915      -0.70862
                        -----------------------------------------
Total Dipole Moment    :      0.20897       0.29538      -0.51159
                        -----------------------------------------
Magnitude (a.u.)       :      0.62661
Magnitude (Debye)      :      1.59271



--------------------
Rotational spectrum 
--------------------
 
Rotational constants in cm-1:     9.993697     9.993429     6.304550 
Rotational constants in MHz : 299603.509327 299595.452230 189005.660235 

 Dipole components along the rotational axes: 
x,y,z [a.u.] :     0.000096     0.000030    -0.626608 
x,y,z [Debye]:     0.000243     0.000077    -1.592710 

 

Timings for individual modules:

Sum of individual times         ...        3.225 sec (=   0.054 min)
GTO integral calculation        ...        0.189 sec (=   0.003 min)   5.9 %
SCF iterations                  ...        3.036 sec (=   0.051 min)  94.1 %
                             ****ORCA TERMINATED NORMALLY****
TOTAL RUN TIME: 0 days 0 hours 0 minutes 3 seconds 607 msec
