
                                 *****************
                                 * O   R   C   A *
                                 *****************

                                            #,                                       
                                            ###                                      
                                            ####                                     
                                            #####                                    
                                            ######                                   
                                           ########,                                 
                                     ,,################,,,,,                         
                               ,,#################################,,                 
                          ,,##########################################,,             
                       ,#########################################, ''#####,          
                    ,#############################################,,   '####,        
                  ,##################################################,,,,####,       
                ,###########''''           ''''###############################       
              ,#####''   ,,,,##########,,,,          '''####'''          '####       
            ,##' ,,,,###########################,,,                        '##       
           ' ,,###''''                  '''############,,,                           
         ,,##''                                '''############,,,,        ,,,,,,###''
      ,#''                                            '''#######################'''  
     '                                                          ''''####''''         
             ,#######,   #######,   ,#######,      ##                                
            ,#'     '#,  ##    ##  ,#'     '#,    #''#        ######   ,####,        
            ##       ##  ##   ,#'  ##            #'  '#       #        #'  '#        
            ##       ##  #######   ##           ,######,      #####,   #    #        
            '#,     ,#'  ##    ##  '#,     ,#' ,#      #,         ##   #,  ,#        
             '#######'   ##     ##  '#######'  #'      '#     #####' # '####'        



                  #######################################################
                  #                        -***-                        #
                  #          Department of theory and spectroscopy      #
                  #    Directorship and core code : Frank Neese         #
                  #        Max Planck Institute fuer Kohlenforschung    #
                  #                Kaiser Wilhelm Platz 1               #
                  #                 D-45470 Muelheim/Ruhr               #
                  #                      Germany                        #
                  #                                                     #
                  #                  All rights reserved                #
                  #                        -***-                        #
                  #######################################################


                         Program Version 5.0.1 -  RELEASE  -


 With contributions from (in alphabetic order):
   Daniel Aravena         : Magnetic Suceptibility
   Michael Atanasov       : Ab Initio Ligand Field Theory (pilot matlab implementation)
   Alexander A. Auer      : GIAO ZORA, VPT2 properties, NMR spectrum
   Ute Becker             : Parallelization
   Giovanni Bistoni       : ED, misc. LED, open-shell LED, HFLD
   Martin Brehm           : Molecular dynamics
   Dmytro Bykov           : SCF Hessian
   Vijay G. Chilkuri      : MRCI spin determinant printing, contributions to CSF-ICE
   Dipayan Datta          : RHF DLPNO-CCSD density
   Achintya Kumar Dutta   : EOM-CC, STEOM-CC
   Dmitry Ganyushin       : Spin-Orbit,Spin-Spin,Magnetic field MRCI
   Miquel Garcia          : C-PCM and meta-GGA Hessian, CC/C-PCM, Gaussian charge scheme
   Yang Guo               : DLPNO-NEVPT2, F12-NEVPT2, CIM, IAO-localization
   Andreas Hansen         : Spin unrestricted coupled pair/coupled cluster methods
   Benjamin Helmich-Paris : MC-RPA, TRAH-SCF, COSX integrals
   Lee Huntington         : MR-EOM, pCC
   Robert Izsak           : Overlap fitted RIJCOSX, COSX-SCS-MP3, EOM
   Marcus Kettner         : VPT2
   Christian Kollmar      : KDIIS, OOCD, Brueckner-CCSD(T), CCSD density, CASPT2, CASPT2-K
   Simone Kossmann        : Meta GGA functionals, TD-DFT gradient, OOMP2, MP2 Hessian
   Martin Krupicka        : Initial AUTO-CI
   Lucas Lang             : DCDCAS
   Marvin Lechner         : AUTO-CI (C++ implementation), FIC-MRCC
   Dagmar Lenk            : GEPOL surface, SMD
   Dimitrios Liakos       : Extrapolation schemes; Compound Job, initial MDCI parallelization
   Dimitrios Manganas     : Further ROCIS development; embedding schemes
   Dimitrios Pantazis     : SARC Basis sets
   Anastasios Papadopoulos: AUTO-CI, single reference methods and gradients
   Taras Petrenko         : DFT Hessian,TD-DFT gradient, ASA, ECA, R-Raman, ABS, FL, XAS/XES, NRVS
   Peter Pinski           : DLPNO-MP2, DLPNO-MP2 Gradient
   Christoph Reimann      : Effective Core Potentials
   Marius Retegan         : Local ZFS, SOC
   Christoph Riplinger    : Optimizer, TS searches, QM/MM, DLPNO-CCSD(T), (RO)-DLPNO pert. Triples
   Tobias Risthaus        : Range-separated hybrids, TD-DFT gradient, RPA, STAB
   Michael Roemelt        : Original ROCIS implementation
   Masaaki Saitow         : Open-shell DLPNO-CCSD energy and density
   Barbara Sandhoefer     : DKH picture change effects
   Avijit Sen             : IP-ROCIS
   Kantharuban Sivalingam : CASSCF convergence, NEVPT2, FIC-MRCI
   Bernardo de Souza      : ESD, SOC TD-DFT
   Georgi Stoychev        : AutoAux, RI-MP2 NMR, DLPNO-MP2 response
   Willem Van den Heuvel  : Paramagnetic NMR
   Boris Wezisla          : Elementary symmetry handling
   Frank Wennmohs         : Technical directorship


 We gratefully acknowledge several colleagues who have allowed us to
 interface, adapt or use parts of their codes:
   Stefan Grimme, W. Hujo, H. Kruse, P. Pracht,  : VdW corrections, initial TS optimization,
                  C. Bannwarth, S. Ehlert          DFT functionals, gCP, sTDA/sTD-DF
   Ed Valeev, F. Pavosevic, A. Kumar             : LibInt (2-el integral package), F12 methods
   Garnet Chan, S. Sharma, J. Yang, R. Olivares  : DMRG
   Ulf Ekstrom                                   : XCFun DFT Library
   Mihaly Kallay                                 : mrcc  (arbitrary order and MRCC methods)
   Jiri Pittner, Ondrej Demel                    : Mk-CCSD
   Frank Weinhold                                : gennbo (NPA and NBO analysis)
   Christopher J. Cramer and Donald G. Truhlar   : smd solvation model
   Lars Goerigk                                  : TD-DFT with DH, B97 family of functionals
   V. Asgeirsson, H. Jonsson                     : NEB implementation
   FAccTs GmbH                                   : IRC, NEB, NEB-TS, DLPNO-Multilevel, CI-OPT
                                                   MM, QMMM, 2- and 3-layer-ONIOM, Crystal-QMMM,
                                                   LR-CPCM, SF, NACMEs, symmetry and pop. for TD-DFT,
                                                   nearIR, NL-DFT gradient (VV10), updates on ESD,
                                                   ML-optimized integration grids
   S Lehtola, MJT Oliveira, MAL Marques          : LibXC Library
   Liviu Ungur et al                             : ANISO software


 Your calculation uses the libint2 library for the computation of 2-el integrals
 For citations please refer to: http://libint.valeyev.net

 Your ORCA version has been built with support for libXC version: 5.1.0
 For citations please refer to: https://tddft.org/programs/libxc/

 This ORCA versions uses:
   CBLAS   interface :  Fast vector & matrix operations
   LAPACKE interface :  Fast linear algebra routines
   SCALAPACK package :  Parallel linear algebra routines
   Shared memory     :  Shared parallel matrices
   BLAS/LAPACK       :  OpenBLAS 0.3.15  USE64BITINT DYNAMIC_ARCH NO_AFFINITY Zen SINGLE_THREADED
        Core in use  :  Zen
   Copyright (c) 2011-2014, The OpenBLAS Project




***************************************
The coordinates will be read from file: methanol.xyz
***************************************


================================================================================

----- Orbital basis set information -----
Your calculation utilizes the basis: aug-cc-pVTZ 
    H, B-Ne : Obtained from the ccRepo (grant-hill.group.shef.ac.uk/ccrepo) Feb. 2017
              R. A. Kendall, T. H. Dunning, Jr., R. J. Harrison, J. Chem. Phys. 96, 6796 (1992)
         He : Obtained from the ccRepo (grant-hill.group.shef.ac.uk/ccrepo) Feb. 2017
              D. E. Woon, T. H. Dunning, Jr., J. Chem. Phys. 100, 2975 (1994)
  Li-Be, Na : Obtained from the ccRepo (grant-hill.group.shef.ac.uk/ccrepo) Feb. 2017
              B. P. Prascher, D. E. Woon, K. A. Peterson, T. H. Dunning, Jr., A. K. Wilson, Theor. Chem. Acc. 128, 69 (2011)
         Mg : Obtained from the Peterson Research Group Website (tyr0.chem.wsu.edu/~kipeters) Feb. 2017
              B. P. Prascher, D. E. Woon, K. A. Peterson, T. H. Dunning, Jr., A. K. Wilson, Theor. Chem. Acc. 128, 69 (2011)
      Al-Ar : Obtained from the ccRepo (grant-hill.group.shef.ac.uk/ccrepo) Feb. 2017
              D. E. Woon, T. H. Dunning, Jr., J. Chem. Phys. 98, 1358 (1993)
      Sc-Zn : Obtained from the ccRepo (grant-hill.group.shef.ac.uk/ccrepo) Feb. 2017
              N. B. Balabanov, K. A. Peterson, J. Chem. Phys. 123, 064107 (2005)
              N. B. Balabanov, K. A. Peterson, J. Chem. Phys. 125, 074110 (2006)
      Ga-Kr : Obtained from the ccRepo (grant-hill.group.shef.ac.uk/ccrepo) Feb. 2017
              A. K. Wilson, D. E. Woon, K. A. Peterson, T. H. Dunning, Jr., J. Chem. Phys. 110, 7667 (1999)
     Ag, Au : Obtained from the Peterson Research Group Website (tyr0.chem.wsu.edu/~kipeters) Feb. 2017
              K. A. Peterson, C. Puzzarini, Theor. Chem. Acc. 114, 283 (2005)

----- AuxJ basis set information -----
Your calculation utilizes the auxiliary basis: def2/J
   F. Weigend, Phys. Chem. Chem. Phys. 8, 1057 (2006).

================================================================================
                                        WARNINGS
                       Please study these warnings very carefully!
================================================================================


INFO   : the flag for use of the SHARK integral package has been found!

================================================================================
                                       INPUT FILE
================================================================================
NAME = methanol_HF.inp
|  1> 
|  2> %pal
|  3>   nprocs 6
|  4> end
|  5> %maxcore 2000
|  6> 
|  7> ! HF aug-cc-pVTZ VeryTightSCF
|  8> ! RIJCOSX def2/J
|  9> 
| 10> * xyzfile 0 1 methanol.xyz
| 11> 
| 12> 
| 13>                          ****END OF INPUT****
================================================================================

                       ****************************
                       * Single Point Calculation *
                       ****************************

---------------------------------
CARTESIAN COORDINATES (ANGSTROEM)
---------------------------------
  O      1.428104   -0.010026    0.000000
  C      0.013173    0.020514    0.000000
  H      1.737386    0.895544   -0.000000
  H     -0.328469   -1.014055    0.000000
  H     -0.386767    0.515986    0.893450
  H     -0.386767    0.515986   -0.893450

----------------------------
CARTESIAN COORDINATES (A.U.)
----------------------------
  NO LB      ZA    FRAG     MASS         X           Y           Z
   0 O     8.0000    0    15.999    2.698726   -0.018946    0.000000
   1 C     6.0000    0    12.011    0.024893    0.038766    0.000000
   2 H     1.0000    0     1.008    3.283184    1.692333   -0.000000
   3 H     1.0000    0     1.008   -0.620716   -1.916287    0.000000
   4 H     1.0000    0     1.008   -0.730884    0.975073    1.688377
   5 H     1.0000    0     1.008   -0.730884    0.975073   -1.688376

--------------------------------
INTERNAL COORDINATES (ANGSTROEM)
--------------------------------
 O      0   0   0     0.000000000000     0.00000000     0.00000000
 C      1   0   0     1.415260759077     0.00000000     0.00000000
 H      1   2   0     0.956928218792   107.62025935     0.00000000
 H      2   1   3     1.089519368815   107.03808690   179.99999759
 H      2   1   3     1.097131906280   111.97442192   298.58030408
 H      2   1   3     1.097131894380   111.97441882    61.41968554

---------------------------
INTERNAL COORDINATES (A.U.)
---------------------------
 O      0   0   0     0.000000000000     0.00000000     0.00000000
 C      1   0   0     2.674455242740     0.00000000     0.00000000
 H      1   2   0     1.808332263338   107.62025935     0.00000000
 H      2   1   3     2.058893224663   107.03808690   179.99999759
 H      2   1   3     2.073278835656   111.97442192   298.58030408
 H      2   1   3     2.073278813169   111.97441882    61.41968554

---------------------
BASIS SET INFORMATION
---------------------
There are 3 groups of distinct atoms

 Group   1 Type O   : 19s6p3d2f contracted to 5s4p3d2f pattern {88111/3111/111/11}
 Group   2 Type C   : 19s6p3d2f contracted to 5s4p3d2f pattern {88111/3111/111/11}
 Group   3 Type H   : 6s3p2d contracted to 4s3p2d pattern {3111/111/11}

Atom   0O    basis set group =>   1
Atom   1C    basis set group =>   2
Atom   2H    basis set group =>   3
Atom   3H    basis set group =>   3
Atom   4H    basis set group =>   3
Atom   5H    basis set group =>   3
---------------------------------
AUXILIARY/J BASIS SET INFORMATION
---------------------------------
There are 3 groups of distinct atoms

 Group   1 Type O   : 12s5p4d2f1g contracted to 6s4p3d1f1g pattern {711111/2111/211/2/1}
 Group   2 Type C   : 12s5p4d2f1g contracted to 6s4p3d1f1g pattern {711111/2111/211/2/1}
 Group   3 Type H   : 5s2p1d contracted to 3s1p1d pattern {311/2/1}

Atom   0O    basis set group =>   1
Atom   1C    basis set group =>   2
Atom   2H    basis set group =>   3
Atom   3H    basis set group =>   3
Atom   4H    basis set group =>   3
Atom   5H    basis set group =>   3


           ************************************************************
           *        Program running with 6 parallel MPI-processes     *
           *              working on a common directory               *
           ************************************************************
------------------------------------------------------------------------------
                           ORCA GTO INTEGRAL CALCULATION
                           -- RI-GTO INTEGRALS CHOSEN --
------------------------------------------------------------------------------
------------------------------------------------------------------------------
                   ___                                                        
                  /   \      - P O W E R E D   B Y -                         
                 /     \                                                     
                 |  |  |   _    _      __       _____    __    __             
                 |  |  |  | |  | |    /  \     |  _  \  |  |  /  |          
                  \  \/   | |  | |   /    \    | | | |  |  | /  /          
                 / \  \   | |__| |  /  /\  \   | |_| |  |  |/  /          
                |  |  |   |  __  | /  /__\  \  |    /   |      \           
                |  |  |   | |  | | |   __   |  |    \   |  |\   \          
                \     /   | |  | | |  |  |  |  | |\  \  |  | \   \       
                 \___/    |_|  |_| |__|  |__|  |_| \__\ |__|  \__/        
                                                                              
                      - O R C A' S   B I G   F R I E N D -                    
                                      &                                       
                       - I N T E G R A L  F E E D E R -                       
                                                                              
 v1 FN, 2020, v2 2021                                                         
------------------------------------------------------------------------------


Reading SHARK input file methanol_HF.SHARKINP.tmp ... ok
----------------------
SHARK INTEGRAL PACKAGE
----------------------

Number of atoms                             ...      6
Number of basis functions                   ...    184
Number of shells                            ...     64
Maximum angular momentum                    ...      3
Integral batch strategy                     ... SHARK/LIBINT Hybrid
RI-J (if used) integral strategy            ... SPLIT-RIJ (Revised 2003 algorithm where possible)
Printlevel                                  ...      1
Contraction scheme used                     ... SEGMENTED contraction
Coulomb Range Separation                    ... NOT USED
Exchange Range Separation                   ... NOT USED
Finite Nucleus Model                        ... NOT USED
Auxiliary Coulomb fitting basis             ... AVAILABLE
   # of basis functions in Aux-J            ...    142
   # of shells in Aux-J                     ...     50
   Maximum angular momentum in Aux-J        ...      4
Auxiliary J/K fitting basis                 ... NOT available
Auxiliary Correlation fitting basis         ... NOT available
Auxiliary 'external' fitting basis          ... NOT available
Integral threshold                          ...     1.000000e-12
Primitive cut-off                           ...     1.000000e-14
Primitive pair pre-selection threshold      ...     1.000000e-14

Calculating pre-screening integrals         ... done (  0.1 sec) Dimension = 64
Organizing shell pair data                  ... done (  0.2 sec)
Shell pair information
Total number of shell pairs                 ...      2080
Shell pairs after pre-screening             ...      2080
Total number of primitive shell pairs       ...      5590
Primitive shell pairs kept                  ...      5196
          la=0 lb=0:    351 shell pairs
          la=1 lb=0:    520 shell pairs
          la=1 lb=1:    210 shell pairs
          la=2 lb=0:    364 shell pairs
          la=2 lb=1:    280 shell pairs
          la=2 lb=2:    105 shell pairs
          la=3 lb=0:    104 shell pairs
          la=3 lb=1:     80 shell pairs
          la=3 lb=2:     56 shell pairs
          la=3 lb=3:     10 shell pairs

Calculating one electron integrals          ... done (  0.1 sec)
Calculating RI/J V-Matrix + Cholesky decomp.... done (  0.8 sec)
Calculating Nuclear repulsion               ... done (  0.0 sec) ENN=     40.393388314316 Eh

SHARK setup successfully completed in   1.6 seconds

Maximum memory used throughout the entire GTOINT-calculation: 17.3 MB


           ************************************************************
           *        Program running with 6 parallel MPI-processes     *
           *              working on a common directory               *
           ************************************************************
-------------------------------------------------------------------------------
                                 ORCA SCF
-------------------------------------------------------------------------------

------------
SCF SETTINGS
------------
Hamiltonian:
 Ab initio Hamiltonian  Method          .... Hartree-Fock(GTOs)
 RI-approximation to the Coulomb term is turned on
   Number of AuxJ basis functions       .... 142
   RIJ-COSX (HFX calculated with COS-X)).... on


General Settings:
 Integral files         IntName         .... methanol_HF
 Hartree-Fock type      HFTyp           .... RHF
 Total Charge           Charge          ....    0
 Multiplicity           Mult            ....    1
 Number of Electrons    NEL             ....   18
 Basis Dimension        Dim             ....  184
 Nuclear Repulsion      ENuc            ....     40.3933883143 Eh

Convergence Acceleration:
 DIIS                   CNVDIIS         .... on
   Start iteration      DIISMaxIt       ....    12
   Startup error        DIISStart       ....  0.200000
   # of expansion vecs  DIISMaxEq       ....     5
   Bias factor          DIISBfac        ....   1.050
   Max. coefficient     DIISMaxC        ....  10.000
 Trust-Rad. Augm. Hess. CNVTRAH         .... auto
   Auto Start mean grad. ratio tolernc. ....  1.125000
   Auto Start start iteration           ....    20
   Auto Start num. interpolation iter.  ....    10
   Max. Number of Micro iterations      ....    16
   Max. Number of Macro iterations      .... Maxiter - #DIIS iter
   Number of Davidson start vectors     ....     2
   Converg. threshold I  (grad. norm)   ....   2.000e-06
   Converg. threshold II (energy diff.) ....   1.000e-09
   Grad. Scal. Fac. for Micro threshold ....   0.100
   Minimum threshold for Micro iter.    ....   0.010
   NR start threshold (gradient norm)   ....   0.001
   Initial trust radius                 ....   0.400
   Minimum AH scaling param. (alpha)    ....   1.000
   Maximum AH scaling param. (alpha)    .... 1000.000
   Orbital update algorithm             .... Taylor
   White noise on init. David. guess    .... on
   Maximum white noise                  ....   0.010
   Quad. conv. algorithm                .... NR
 SOSCF                  CNVSOSCF        .... on
   Start iteration      SOSCFMaxIt      ....   150
   Startup grad/error   SOSCFStart      ....  0.003300
 Level Shifting         CNVShift        .... on
   Level shift para.    LevelShift      ....    0.2500
   Turn off err/grad.   ShiftErr        ....    0.0010
 Zerner damping         CNVZerner       .... off
 Static damping         CNVDamp         .... on
   Fraction old density DampFac         ....    0.7000
   Max. Damping (<1)    DampMax         ....    0.9800
   Min. Damping (>=0)   DampMin         ....    0.0000
   Turn off err/grad.   DampErr         ....    0.1000
 Fernandez-Rico         CNVRico         .... off

SCF Procedure:
 Maximum # iterations   MaxIter         ....   125
 SCF integral mode      SCFMode         .... Direct
   Integral package                     .... SHARK and LIBINT hybrid scheme
 Reset frequency        DirectResetFreq ....    20
 Integral Threshold     Thresh          ....  1.000e-12 Eh
 Primitive CutOff       TCut            ....  1.000e-14 Eh

Convergence Tolerance:
 Convergence Check Mode ConvCheckMode   .... Total+1el-Energy
 Convergence forced     ConvForced      .... 0
 Energy Change          TolE            ....  1.000e-09 Eh
 1-El. energy change                    ....  1.000e-06 Eh
 Orbital Gradient       TolG            ....  2.000e-06
 Orbital Rotation angle TolX            ....  2.000e-06
 DIIS Error             TolErr          ....  1.000e-08


Diagonalization of the overlap matrix:
Smallest eigenvalue                        ... 6.294e-05
Time for diagonalization                   ...    0.028 sec
Threshold for overlap eigenvalues          ... 1.000e-08
Number of eigenvalues below threshold      ... 0
Time for construction of square roots      ...    0.105 sec
Total time needed                          ...    0.210 sec

Time for model grid setup =    0.149 sec

------------------------------
INITIAL GUESS: MODEL POTENTIAL
------------------------------
Loading Hartree-Fock densities                     ... done
Calculating cut-offs                               ... done
Initializing the effective Hamiltonian             ... done
Setting up the integral package (SHARK)            ... done
Starting the Coulomb interaction                   ... done (   0.3 sec)
Reading the grid                                   ... done
Mapping shells                                     ... done
Starting the XC term evaluation                    ... done (   0.1 sec)
Transforming the Hamiltonian                       ... done (   0.2 sec)
Diagonalizing the Hamiltonian                      ... done (   0.2 sec)
Back transforming the eigenvectors                 ... done (   0.0 sec)
Now organizing SCF variables                       ... done
                      ------------------
                      INITIAL GUESS DONE (   1.2 sec)
                      ------------------
--------------------
COSX GRID GENERATION
--------------------

GRIDX 1
-------
General Integration Accuracy     IntAcc      ... 3.816
Radial Grid Type                 RadialGrid  ... OptM3 with GC (2021)
Angular Grid (max. ang.)         AngularGrid ... 1 (Lebedev-50)
Angular grid pruning method      GridPruning ... 4 (adaptive)
Weight generation scheme         WeightScheme... Becke
Basis function cutoff            BFCut       ... 1.0000e-12
Integration weight cutoff        WCut        ... 1.0000e-14
Angular grids for H and He will be reduced by one unit
Partially contracted basis set               ... on
Rotationally invariant grid construction     ... off

Total number of grid points                  ...     3378
Total number of batches                      ...       56
Average number of points per batch           ...       60
Average number of grid points per atom       ...      563
UseSFitting                                  ... on

GRIDX 2
-------
General Integration Accuracy     IntAcc      ... 4.020
Radial Grid Type                 RadialGrid  ... OptM3 with GC (2021)
Angular Grid (max. ang.)         AngularGrid ... 2 (Lebedev-110)
Angular grid pruning method      GridPruning ... 4 (adaptive)
Weight generation scheme         WeightScheme... Becke
Basis function cutoff            BFCut       ... 1.0000e-12
Integration weight cutoff        WCut        ... 1.0000e-14
Angular grids for H and He will be reduced by one unit
Partially contracted basis set               ... on
Rotationally invariant grid construction     ... off

Total number of grid points                  ...     8091
Total number of batches                      ...      130
Average number of points per batch           ...       62
Average number of grid points per atom       ...     1348
UseSFitting                                  ... on

GRIDX 3
-------
General Integration Accuracy     IntAcc      ... 4.338
Radial Grid Type                 RadialGrid  ... OptM3 with GC (2021)
Angular Grid (max. ang.)         AngularGrid ... 3 (Lebedev-194)
Angular grid pruning method      GridPruning ... 4 (adaptive)
Weight generation scheme         WeightScheme... Becke
Basis function cutoff            BFCut       ... 1.0000e-12
Integration weight cutoff        WCut        ... 1.0000e-14
Angular grids for H and He will be reduced by one unit
Partially contracted basis set               ... on
Rotationally invariant grid construction     ... off

Total number of grid points                  ...    18453
Total number of batches                      ...      292
Average number of points per batch           ...       63
Average number of grid points per atom       ...     3076
UseSFitting                                  ... on

Time for X-Grid setup             =    1.032 sec

 re-compute Schwartz prescreening matrix in partically contracted basis (1) ...done (   0.360 sec)
--------------
SCF ITERATIONS
--------------
ITER       Energy         Delta-E        Max-DP      RMS-DP      [F,P]     Damp
               ***  Starting incremental Fock matrix formation  ***
  0   -114.9706096784   0.000000000000 0.02775876  0.00068505  0.3106716 0.7000
  1   -115.0148721251  -0.044262446607 0.02044611  0.00049303  0.1868575 0.7000
                               ***Turning on DIIS***
  2   -115.0404619795  -0.025589854416 0.01492755  0.00031615  0.1100530 0.7000
  3   -115.3130896844  -0.272627704956 0.03763369  0.00070399  0.0828459 0.0000
  4   -115.0705403598   0.242549324634 0.00494365  0.00010192  0.0062707 0.0000
                      *** Initiating the SOSCF procedure ***
                           *** Shutting down DIIS ***
                      *** Re-Reading the Fockian *** 
                      *** Removing any level shift *** 
ITER      Energy       Delta-E        Grad      Rot      Max-DP    RMS-DP
  5   -115.09128308  -0.0207427184  0.001007  0.001007  0.001633  0.000038
               *** Restarting incremental Fock matrix formation ***
  6   -115.09249239  -0.0012093071  0.000330  0.000521  0.002672  0.000034
  7   -115.09249820  -0.0000058145  0.000149  0.000411  0.000502  0.000013
  8   -115.09249917  -0.0000009690  0.000062  0.000042  0.000450  0.000005
  9   -115.09249927  -0.0000001025  0.000015  0.000011  0.000035  0.000001
 10   -115.09249928  -0.0000000041  0.000004  0.000005  0.000017  0.000000
 11   -115.09249928   0.0000000001  0.000001  0.000002  0.000003  0.000000
                 **** Energy Check signals convergence ****
              ***Rediagonalizing the Fockian in SOSCF/NRSCF***

               *****************************************************
               *                     SUCCESS                       *
               *           SCF CONVERGED AFTER  12 CYCLES          *
               *****************************************************

Old exchange energy                            =    -14.855030542 Eh
New exchange energy                            =    -14.854898489 Eh
Exchange energy change after final integration =      0.000132053 Eh
Total energy after final integration           =   -115.092367222 Eh
Final COS-X integration done in                =     1.224 sec

----------------
TOTAL SCF ENERGY
----------------

Total Energy       :         -115.09236722 Eh           -3131.82253 eV

Components:
Nuclear Repulsion  :           40.39338831 Eh            1099.15998 eV
Electronic Energy  :         -155.48575554 Eh           -4230.98251 eV
One Electron Energy:         -237.01035251 Eh           -6449.37957 eV
Two Electron Energy:           81.52459697 Eh            2218.39706 eV
Max COSX asymmetry :            0.00000580 Eh               0.00016 eV

Virial components:
Potential Energy   :         -230.01149091 Eh           -6258.93087 eV
Kinetic Energy     :          114.91912369 Eh            3127.10833 eV
Virial Ratio       :            2.00150753


---------------
SCF CONVERGENCE
---------------

  Last Energy change         ...   -1.5859e-11  Tolerance :   1.0000e-09
  Last MAX-Density change    ...    8.8818e-16  Tolerance :   1.0000e-08
  Last RMS-Density change    ...    1.0398e-17  Tolerance :   1.0000e-09
  Last Orbital Gradient      ...    1.9467e-07  Tolerance :   2.0000e-06
  Last Orbital Rotation      ...    2.7895e-07  Tolerance :   2.0000e-06

             **** THE GBW FILE WAS UPDATED (methanol_HF.gbw) ****
             **** DENSITY methanol_HF.scfp WAS UPDATED ****
             **** ENERGY FILE WAS UPDATED (methanol_HF.en.tmp) ****
             **** THE GBW FILE WAS UPDATED (methanol_HF.gbw) ****
             **** DENSITY methanol_HF.scfp WAS UPDATED ****
----------------
ORBITAL ENERGIES
----------------

  NO   OCC          E(Eh)            E(eV) 
   0   2.0000     -20.559461      -559.4514 
   1   2.0000     -11.272042      -306.7279 
   2   2.0000      -1.361008       -37.0349 
   3   2.0000      -0.924696       -25.1623 
   4   2.0000      -0.692747       -18.8506 
   5   2.0000      -0.620822       -16.8934 
   6   2.0000      -0.594768       -16.1844 
   7   2.0000      -0.503917       -13.7123 
   8   2.0000      -0.451250       -12.2791 
   9   0.0000       0.029095         0.7917 
  10   0.0000       0.043584         1.1860 
  11   0.0000       0.047243         1.2855 
  12   0.0000       0.053642         1.4597 
  13   0.0000       0.099514         2.7079 
  14   0.0000       0.117088         3.1861 
  15   0.0000       0.129469         3.5230 
  16   0.0000       0.140440         3.8216 
  17   0.0000       0.165696         4.5088 
  18   0.0000       0.173585         4.7235 
  19   0.0000       0.182838         4.9753 
  20   0.0000       0.211455         5.7540 
  21   0.0000       0.215477         5.8634 
  22   0.0000       0.268371         7.3027 
  23   0.0000       0.270149         7.3511 
  24   0.0000       0.294297         8.0082 
  25   0.0000       0.301146         8.1946 
  26   0.0000       0.321722         8.7545 
  27   0.0000       0.321757         8.7555 
  28   0.0000       0.333620         9.0783 
  29   0.0000       0.343160         9.3378 
  30   0.0000       0.351877         9.5751 
  31   0.0000       0.370052        10.0696 
  32   0.0000       0.391537        10.6543 
  33   0.0000       0.409291        11.1374 
  34   0.0000       0.433356        11.7922 
  35   0.0000       0.437449        11.9036 
  36   0.0000       0.446114        12.1394 
  37   0.0000       0.456553        12.4234 
  38   0.0000       0.460247        12.5240 
  39   0.0000       0.481081        13.0909 
  40   0.0000       0.507915        13.8211 
  41   0.0000       0.513966        13.9857 
  42   0.0000       0.525341        14.2953 
  43   0.0000       0.663235        18.0475 
  44   0.0000       0.670159        18.2360 
  45   0.0000       0.680866        18.5273 
  46   0.0000       0.753630        20.5073 
  47   0.0000       0.770490        20.9661 
  48   0.0000       0.780679        21.2434 
  49   0.0000       0.790910        21.5218 
  50   0.0000       0.803786        21.8721 
  51   0.0000       0.850989        23.1566 
  52   0.0000       0.856849        23.3160 
  53   0.0000       0.886264        24.1165 
  54   0.0000       0.901499        24.5310 
  55   0.0000       0.933212        25.3940 
  56   0.0000       0.935615        25.4594 
  57   0.0000       0.937117        25.5003 
  58   0.0000       0.949738        25.8437 
  59   0.0000       0.973582        26.4925 
  60   0.0000       0.978400        26.6236 
  61   0.0000       0.984490        26.7893 
  62   0.0000       1.017864        27.6975 
  63   0.0000       1.042841        28.3771 
  64   0.0000       1.069719        29.1085 
  65   0.0000       1.073462        29.2104 
  66   0.0000       1.095157        29.8007 
  67   0.0000       1.111594        30.2480 
  68   0.0000       1.123330        30.5674 
  69   0.0000       1.138354        30.9762 
  70   0.0000       1.145388        31.1676 
  71   0.0000       1.177521        32.0420 
  72   0.0000       1.200790        32.6752 
  73   0.0000       1.201529        32.6953 
  74   0.0000       1.248682        33.9784 
  75   0.0000       1.298046        35.3216 
  76   0.0000       1.316623        35.8271 
  77   0.0000       1.368851        37.2483 
  78   0.0000       1.409484        38.3540 
  79   0.0000       1.437832        39.1254 
  80   0.0000       1.534154        41.7464 
  81   0.0000       1.555176        42.3185 
  82   0.0000       1.560459        42.4622 
  83   0.0000       1.591782        43.3146 
  84   0.0000       1.601000        43.5654 
  85   0.0000       1.613592        43.9081 
  86   0.0000       1.649256        44.8785 
  87   0.0000       1.656981        45.0887 
  88   0.0000       1.669518        45.4299 
  89   0.0000       1.700331        46.2683 
  90   0.0000       1.736289        47.2468 
  91   0.0000       1.755929        47.7813 
  92   0.0000       1.887743        51.3681 
  93   0.0000       1.932768        52.5933 
  94   0.0000       1.953051        53.1452 
  95   0.0000       1.974971        53.7417 
  96   0.0000       2.035235        55.3816 
  97   0.0000       2.037864        55.4531 
  98   0.0000       2.076070        56.4927 
  99   0.0000       2.084392        56.7192 
 100   0.0000       2.161988        58.8307 
 101   0.0000       2.176769        59.2329 
 102   0.0000       2.377804        64.7033 
 103   0.0000       2.476428        67.3870 
 104   0.0000       2.482367        67.5487 
 105   0.0000       2.515783        68.4579 
 106   0.0000       2.548896        69.3590 
 107   0.0000       2.570637        69.9506 
 108   0.0000       2.733545        74.3835 
 109   0.0000       2.760376        75.1136 
 110   0.0000       2.785020        75.7842 
 111   0.0000       2.841829        77.3301 
 112   0.0000       2.889384        78.6241 
 113   0.0000       2.949075        80.2484 
 114   0.0000       2.990407        81.3731 
 115   0.0000       3.050231        83.0010 
 116   0.0000       3.190461        86.8168 
 117   0.0000       3.317824        90.2826 
 118   0.0000       3.378216        91.9259 
 119   0.0000       3.527939        96.0001 
 120   0.0000       3.550376        96.6107 
 121   0.0000       3.576940        97.3335 
 122   0.0000       3.623151        98.5910 
 123   0.0000       3.638688        99.0137 
 124   0.0000       3.702809       100.7586 
 125   0.0000       3.784155       102.9721 
 126   0.0000       3.851603       104.8075 
 127   0.0000       3.882600       105.6509 
 128   0.0000       3.936953       107.1299 
 129   0.0000       3.944011       107.3220 
 130   0.0000       3.994078       108.6844 
 131   0.0000       4.056377       110.3796 
 132   0.0000       4.079475       111.0082 
 133   0.0000       4.102029       111.6219 
 134   0.0000       4.165768       113.3563 
 135   0.0000       4.201748       114.3354 
 136   0.0000       4.225753       114.9886 
 137   0.0000       4.237747       115.3150 
 138   0.0000       4.274883       116.3255 
 139   0.0000       4.471761       121.6828 
 140   0.0000       4.498643       122.4143 
 141   0.0000       4.519290       122.9761 
 142   0.0000       4.543819       123.6436 
 143   0.0000       4.606485       125.3488 
 144   0.0000       4.646690       126.4429 
 145   0.0000       4.752544       129.3233 
 146   0.0000       4.757298       129.4527 
 147   0.0000       4.764845       129.6580 
 148   0.0000       4.906075       133.5011 
 149   0.0000       4.969306       135.2217 
 150   0.0000       5.013180       136.4156 
 151   0.0000       5.034276       136.9896 
 152   0.0000       5.062737       137.7641 
 153   0.0000       5.136155       139.7619 
 154   0.0000       5.241630       142.6320 
 155   0.0000       5.250156       142.8640 
 156   0.0000       5.375693       146.2800 
 157   0.0000       5.472114       148.9038 
 158   0.0000       5.532115       150.5365 
 159   0.0000       5.580864       151.8630 
 160   0.0000       5.587251       152.0368 
 161   0.0000       5.637858       153.4139 
 162   0.0000       5.707781       155.3166 
 163   0.0000       6.090355       165.7270 
 164   0.0000       6.094465       165.8388 
 165   0.0000       6.117649       166.4697 
 166   0.0000       6.167590       167.8287 
 167   0.0000       6.558744       178.4725 
 168   0.0000       6.611445       179.9066 
 169   0.0000       6.622724       180.2135 
 170   0.0000       6.879396       187.1979 
 171   0.0000       6.894683       187.6139 
 172   0.0000       7.062532       192.1813 
 173   0.0000       7.264941       197.6891 
 174   0.0000       7.318373       199.1430 
 175   0.0000       7.367039       200.4673 
 176   0.0000       7.480086       203.5435 
 177   0.0000       7.531912       204.9537 
 178   0.0000       7.735032       210.4809 
 179   0.0000       7.844546       213.4609 
 180   0.0000       8.135849       221.3877 
 181   0.0000       8.518776       231.8077 
 182   0.0000      15.653409       425.9509 
 183   0.0000      17.617055       479.3844 

                    ********************************
                    * MULLIKEN POPULATION ANALYSIS *
                    ********************************

-----------------------
MULLIKEN ATOMIC CHARGES
-----------------------
   0 O :   -0.498771
   1 C :   -0.624042
   2 H :    0.195231
   3 H :    0.329681
   4 H :    0.298956
   5 H :    0.298944
Sum of atomic charges:    0.0000000

--------------------------------
MULLIKEN REDUCED ORBITAL CHARGES
--------------------------------
  0 O s       :     3.873152  s :     3.873152
      pz      :     1.904164  p :     4.594679
      px      :     1.329157
      py      :     1.361358
      dz2     :     0.002498  d :     0.028516
      dxz     :     0.003908
      dyz     :     0.001046
      dx2y2   :     0.015838
      dxy     :     0.005226
      f0      :     0.000288  f :     0.002423
      f+1     :     0.000656
      f-1     :     0.000317
      f+2     :     0.000226
      f-2     :     0.000055
      f+3     :     0.000256
      f-3     :     0.000625
  1 C s       :     3.253829  s :     3.253829
      pz      :     1.184802  p :     3.123298
      px      :     0.697189
      py      :     1.241307
      dz2     :     0.027579  d :     0.226992
      dxz     :     0.074535
      dyz     :     0.034899
      dx2y2   :     0.040417
      dxy     :     0.049561
      f0      :     0.003336  f :     0.019924
      f+1     :     0.001682
      f-1     :     0.002226
      f+2     :     0.003935
      f-2     :     0.001626
      f+3     :     0.001628
      f-3     :     0.005490
  2 H s       :     0.685245  s :     0.685245
      pz      :     0.047821  p :     0.096489
      px      :     0.041006
      py      :     0.007662
      dz2     :     0.000697  d :     0.023035
      dxz     :     0.001341
      dyz     :     0.008644
      dx2y2   :     0.005482
      dxy     :     0.006872
  3 H s       :     0.642098  s :     0.642098
      pz      :     0.002983  p :     0.028274
      px      :     0.002692
      py      :     0.022599
      dz2     :    -0.001122  d :    -0.000053
      dxz     :     0.000298
      dyz     :     0.001901
      dx2y2   :    -0.000568
      dxy     :    -0.000563
  4 H s       :     0.665467  s :     0.665467
      pz      :     0.017413  p :     0.034674
      px      :     0.010583
      py      :     0.006677
      dz2     :     0.001338  d :     0.000903
      dxz     :    -0.000519
      dyz     :     0.000305
      dx2y2   :    -0.000265
      dxy     :     0.000045
  5 H s       :     0.665479  s :     0.665479
      pz      :     0.017414  p :     0.034674
      px      :     0.010583
      py      :     0.006677
      dz2     :     0.001338  d :     0.000903
      dxz     :    -0.000520
      dyz     :     0.000305
      dx2y2   :    -0.000265
      dxy     :     0.000045


                     *******************************
                     * LOEWDIN POPULATION ANALYSIS *
                     *******************************

----------------------
LOEWDIN ATOMIC CHARGES
----------------------
   0 O :    0.776703
   1 C :    0.315046
   2 H :   -0.518097
   3 H :   -0.198239
   4 H :   -0.187706
   5 H :   -0.187706

-------------------------------
LOEWDIN REDUCED ORBITAL CHARGES
-------------------------------
  0 O s       :     3.008409  s :     3.008409
      pz      :     1.440701  p :     3.889581
      px      :     1.178287
      py      :     1.270593
      dz2     :     0.025211  d :     0.260270
      dxz     :     0.066936
      dyz     :     0.001961
      dx2y2   :     0.070977
      dxy     :     0.095184
      f0      :     0.007992  f :     0.065037
      f+1     :     0.005804
      f-1     :     0.003147
      f+2     :     0.012621
      f-2     :     0.000894
      f+3     :     0.010481
      f-3     :     0.024097
  1 C s       :     2.474001  s :     2.474001
      pz      :     0.791753  p :     2.190585
      px      :     0.600825
      py      :     0.798007
      dz2     :     0.097295  d :     0.699445
      dxz     :     0.200851
      dyz     :     0.064768
      dx2y2   :     0.165127
      dxy     :     0.171405
      f0      :     0.039476  f :     0.320923
      f+1     :     0.041660
      f-1     :     0.019314
      f+2     :     0.062082
      f-2     :     0.011849
      f+3     :     0.049731
      f-3     :     0.096809
  2 H s       :     0.597661  s :     0.597661
      pz      :     0.158854  p :     0.546132
      px      :     0.137323
      py      :     0.249954
      dz2     :     0.033576  d :     0.374305
      dxz     :     0.017306
      dyz     :     0.110608
      dx2y2   :     0.120893
      dxy     :     0.091922
  3 H s       :     0.669915  s :     0.669915
      pz      :     0.088789  p :     0.302417
      px      :     0.063868
      py      :     0.149760
      dz2     :     0.016465  d :     0.225908
      dxz     :     0.008266
      dyz     :     0.086895
      dx2y2   :     0.066116
      dxy     :     0.048165
  4 H s       :     0.673389  s :     0.673389
      pz      :     0.133335  p :     0.297909
      px      :     0.061882
      py      :     0.102693
      dz2     :     0.076687  d :     0.216408
      dxz     :     0.034474
      dyz     :     0.048980
      dx2y2   :     0.040813
      dxy     :     0.015453
  5 H s       :     0.673389  s :     0.673389
      pz      :     0.133335  p :     0.297909
      px      :     0.061882
      py      :     0.102693
      dz2     :     0.076687  d :     0.216408
      dxz     :     0.034474
      dyz     :     0.048980
      dx2y2   :     0.040813
      dxy     :     0.015453


                      *****************************
                      * MAYER POPULATION ANALYSIS *
                      *****************************

  NA   - Mulliken gross atomic population
  ZA   - Total nuclear charge
  QA   - Mulliken gross atomic charge
  VA   - Mayer's total valence
  BVA  - Mayer's bonded valence
  FA   - Mayer's free valence

  ATOM       NA         ZA         QA         VA         BVA        FA
  0 O      8.4988     8.0000    -0.4988     1.8475     1.8475     0.0000
  1 C      6.6240     6.0000    -0.6240     3.5841     3.5841     0.0000
  2 H      0.8048     1.0000     0.1952     1.0286     1.0286     0.0000
  3 H      0.6703     1.0000     0.3297     0.9491     0.9491     0.0000
  4 H      0.7010     1.0000     0.2990     0.9963     0.9963     0.0000
  5 H      0.7011     1.0000     0.2989     0.9963     0.9963     0.0000

  Mayer bond orders larger than 0.100000
B(  0-O ,  1-C ) :   0.8255 B(  0-O ,  2-H ) :   0.9819 B(  1-C ,  3-H ) :   0.8982 
B(  1-C ,  4-H ) :   0.9087 B(  1-C ,  5-H ) :   0.9087 

-------
TIMINGS
-------

Total SCF time: 0 days 0 hours 0 min 44 sec 

Total time                  ....      44.980 sec
Sum of individual times     ....      40.624 sec  ( 90.3%)

Fock matrix formation       ....      21.488 sec  ( 47.8%)
  Split-RI-J                ....       8.286 sec  ( 38.6% of F)
  Chain of spheres X        ....       7.102 sec  ( 33.1% of F)
Diagonalization             ....       4.548 sec  ( 10.1%)
Density matrix formation    ....       0.248 sec  (  0.6%)
Population analysis         ....       0.419 sec  (  0.9%)
Initial guess               ....       1.023 sec  (  2.3%)
Orbital Transformation      ....       0.000 sec  (  0.0%)
Orbital Orthonormalization  ....       0.000 sec  (  0.0%)
DIIS solution               ....       8.025 sec  ( 17.8%)
SOSCF solution              ....       3.691 sec  (  8.2%)

Maximum memory used throughout the entire SCF-calculation: 64.2 MB

-------------------------   --------------------
FINAL SINGLE POINT ENERGY      -115.092367221868
-------------------------   --------------------


                            ***************************************
                            *     ORCA property calculations      *
                            ***************************************

                                    ---------------------
                                    Active property flags
                                    ---------------------
   (+) Dipole Moment


------------------------------------------------------------------------------
                       ORCA ELECTRIC PROPERTIES CALCULATION
------------------------------------------------------------------------------

Dipole Moment Calculation                       ... on
Quadrupole Moment Calculation                   ... off
Polarizability Calculation                      ... off
GBWName                                         ... methanol_HF.gbw
Electron density                                ... methanol_HF.scfp
The origin for moment calculation is the CENTER OF MASS  = ( 1.394614,  0.059375  0.000000)

-------------
DIPOLE MOMENT
-------------
                                X             Y             Z
Electronic contribution:      1.75656      -0.16315      -0.00000
Nuclear contribution   :     -2.16318       0.73846      -0.00000
                        -----------------------------------------
Total Dipole Moment    :     -0.40662       0.57532      -0.00000
                        -----------------------------------------
Magnitude (a.u.)       :      0.70451
Magnitude (Debye)      :      1.79072



--------------------
Rotational spectrum 
--------------------
 
Rotational constants in cm-1:     4.269304     0.832063     0.803124 
Rotational constants in MHz : 127990.526170 24944.610973 24077.065620 

 Dipole components along the rotational axes: 
x,y,z [a.u.] :    -0.387600     0.588303    -0.000000 
x,y,z [Debye]:    -0.985200     1.495347    -0.000000 

 

Timings for individual modules:

Sum of individual times         ...       48.635 sec (=   0.811 min)
GTO integral calculation        ...        2.879 sec (=   0.048 min)   5.9 %
SCF iterations                  ...       45.755 sec (=   0.763 min)  94.1 %
                             ****ORCA TERMINATED NORMALLY****
TOTAL RUN TIME: 0 days 0 hours 0 minutes 49 seconds 690 msec
