
                                 *****************
                                 * O   R   C   A *
                                 *****************

           --- An Ab Initio, DFT and Semiempirical electronic structure package ---

                  #######################################################
                  #                        -***-                        #
                  #          Department of theory and spectroscopy      #
                  #               Directorship: Frank Neese             #
                  #        Max Planck Institute fuer Kohlenforschung    #
                  #                Kaiser Wilhelm Platz 1               #
                  #                 D-45470 Muelheim/Ruhr               #
                  #                      Germany                        #
                  #                                                     #
                  #                  All rights reserved                #
                  #                        -***-                        #
                  #######################################################


                         Program Version 4.2.1 -  RELEASE  -


 With contributions from (in alphabetic order):
   Daniel Aravena         : Magnetic Suceptibility
   Michael Atanasov       : Ab Initio Ligand Field Theory (pilot matlab implementation)
   Alexander A. Auer      : GIAO ZORA, VPT2
   Ute Becker             : Parallelization
   Giovanni Bistoni       : ED, misc. LED, open-shell LED, HFLD
   Martin Brehm           : Molecular dynamics
   Dmytro Bykov           : SCF Hessian
   Vijay G. Chilkuri      : MRCI spin determinant printing, contributions to CSF-ICE
   Dipayan Datta          : RHF DLPNO-CCSD density
   Achintya Kumar Dutta   : EOM-CC, STEOM-CC
   Dmitry Ganyushin       : Spin-Orbit,Spin-Spin,Magnetic field MRCI
   Miquel Garcia          : C-PCM Hessian, Gaussian charge scheme
   Yang Guo               : DLPNO-NEVPT2, CIM, IAO-localization
   Andreas Hansen         : Spin unrestricted coupled pair/coupled cluster methods
   Benjamin Helmich-Paris : CASSCF linear response (MC-RPA)
   Lee Huntington         : MR-EOM, pCC
   Robert Izsak           : Overlap fitted RIJCOSX, COSX-SCS-MP3, EOM
   Christian Kollmar      : KDIIS, OOCD, Brueckner-CCSD(T), CCSD density
   Simone Kossmann        : Meta GGA functionals, TD-DFT gradient, OOMP2, MP2 Hessian
   Martin Krupicka        : AUTO-CI
   Lucas Lang             : DCDCAS
   Dagmar Lenk            : GEPOL surface, SMD
   Dimitrios Liakos       : Extrapolation schemes; Compound Job, initial MDCI parallelization
   Dimitrios Manganas     : Further ROCIS development; embedding schemes
   Dimitrios Pantazis     : SARC Basis sets
   Taras Petrenko         : DFT Hessian,TD-DFT gradient, ASA, ECA, R-Raman, ABS, FL, XAS/XES, NRVS
   Peter Pinski           : DLPNO-MP2, DLPNO-MP2 Gradient
   Christoph Reimann      : Effective Core Potentials
   Marius Retegan         : Local ZFS, SOC
   Christoph Riplinger    : Optimizer, TS searches, QM/MM, DLPNO-CCSD(T), (RO)-DLPNO pert. Triples
   Tobias Risthaus        : Range-separated hybrids, TD-DFT gradient, RPA, STAB
   Michael Roemelt        : Original ROCIS implementation
   Masaaki Saitow         : Open-shell DLPNO-CCSD energy and density
   Barbara Sandhoefer     : DKH picture change effects
   Avijit Sen             : IP-ROCIS
   Kantharuban Sivalingam : CASSCF convergence, NEVPT2, FIC-MRCI
   Bernardo de Souza      : ESD, SOC TD-DFT
   Georgi Stoychev        : AutoAux, RI-MP2 NMR
   Willem Van den Heuvel  : Paramagnetic NMR
   Boris Wezisla          : Elementary symmetry handling
   Frank Wennmohs         : Technical directorship


 We gratefully acknowledge several colleagues who have allowed us to
 interface, adapt or use parts of their codes:
   Stefan Grimme, W. Hujo, H. Kruse,             : VdW corrections, initial TS optimization,
                  C. Bannwarth                     DFT functionals, gCP, sTDA/sTD-DF
   Ed Valeev, F. Pavosevic, A. Kumar             : LibInt (2-el integral package), F12 methods
   Garnet Chan, S. Sharma, J. Yang, R. Olivares  : DMRG
   Ulf Ekstrom                                   : XCFun DFT Library
   Mihaly Kallay                                 : mrcc  (arbitrary order and MRCC methods)
   Andreas Klamt, Michael Diedenhofen            : otool_cosmo (COSMO solvation model)
   Jiri Pittner, Ondrej Demel                    : Mk-CCSD
   Frank Weinhold                                : gennbo (NPA and NBO analysis)
   Christopher J. Cramer and Donald G. Truhlar   : smd solvation model
   Lars Goerigk                                  : TD-DFT with DH, B97 family of functionals
   V. Asgeirsson, H. Jonsson                     : NEB implementation
   FAccTs GmbH                                   : IRC, NEB, NEB-TS, Multilevel, MM, QM/MM, CI optimization
   S Lehtola, MJT Oliveira, MAL Marques          : LibXC Library


 Your calculation uses the libint2 library for the computation of 2-el integrals
 For citations please refer to: http://libint.valeyev.net

 Your ORCA version has been built with support for libXC version: 4.2.3
 For citations please refer to: https://tddft.org/programs/libxc/

 This ORCA versions uses:
   CBLAS   interface :  Fast vector & matrix operations
   LAPACKE interface :  Fast linear algebra routines
   SCALAPACK package :  Parallel linear algebra routines




***************************************
The coordinates will be read from file: hydrogen_sulfide_MP2_aug-cc-pVTZ_OPT.xyz
***************************************


----- Orbital basis set information -----
Your calculation utilizes the basis: aug-cc-pVTZ 
    H, B-Ne : Obtained from the ccRepo (grant-hill.group.shef.ac.uk/ccrepo) Feb. 2017
              R. A. Kendall, T. H. Dunning, Jr., R. J. Harrison, J. Chem. Phys. 96, 6796 (1992)
         He : Obtained from the ccRepo (grant-hill.group.shef.ac.uk/ccrepo) Feb. 2017
              D. E. Woon, T. H. Dunning, Jr., J. Chem. Phys. 100, 2975 (1994)
  Li-Be, Na : Obtained from the ccRepo (grant-hill.group.shef.ac.uk/ccrepo) Feb. 2017
              B. P. Prascher, D. E. Woon, K. A. Peterson, T. H. Dunning, Jr., A. K. Wilson, Theor. Chem. Acc. 128, 69 (2011)
         Mg : Obtained from the Peterson Research Group Website (tyr0.chem.wsu.edu/~kipeters) Feb. 2017
              B. P. Prascher, D. E. Woon, K. A. Peterson, T. H. Dunning, Jr., A. K. Wilson, Theor. Chem. Acc. 128, 69 (2011)
      Al-Ar : Obtained from the ccRepo (grant-hill.group.shef.ac.uk/ccrepo) Feb. 2017
              D. E. Woon, T. H. Dunning, Jr., J. Chem. Phys. 98, 1358 (1993)
      Sc-Zn : Obtained from the ccRepo (grant-hill.group.shef.ac.uk/ccrepo) Feb. 2017
              N. B. Balabanov, K. A. Peterson, J. Chem. Phys. 123, 064107 (2005)
              N. B. Balabanov, K. A. Peterson, J. Chem. Phys. 125, 074110 (2006)
      Ga-Kr : Obtained from the ccRepo (grant-hill.group.shef.ac.uk/ccrepo) Feb. 2017
              A. K. Wilson, D. E. Woon, K. A. Peterson, T. H. Dunning, Jr., J. Chem. Phys. 110, 7667 (1999)
     Ag, Au : Obtained from the Peterson Research Group Website (tyr0.chem.wsu.edu/~kipeters) Feb. 2017
              K. A. Peterson, C. Puzzarini, Theor. Chem. Acc. 114, 283 (2005)

----- AuxC basis set information -----
Your calculation utilizes the auxiliary basis: aug-cc-pVTZ/C 
  H-He, B-F, Al-Ar, Ga-Kr : Obtained from the EMSL Basis Set Exchange (bse.pnl.gov) Feb. 2017
                            F. Weigend, A. Kohn, C. Hattig, J. Chem. Phys. 116, 3175 (2002)
                   Be, Mg : Obtained from the TURBOMOLE 7.0 basis set library
                            C. Haettig, Phys. Chem. Chem. Phys. 7, 59 (2005)
                       Ne : Obtained from the EMSL Basis Set Exchange (bse.pnl.gov) Feb. 2017
                            C. Haettig, Phys. Chem. Chem. Phys. 7, 59 (2005)
                            F. Weigend, A. Kohn, C. Hattig, J. Chem. Phys. 116, 3175 (2002)
                    Sc-Zn : Obtained from the EMSL Basis Set Exchange (bse.pnl.gov) Feb. 2017
                            J. G. Hill, J. A. Platts, J. Chem. Phys. 128, 044104 (2008)

================================================================================
                                        WARNINGS
                       Please study these warnings very carefully!
================================================================================


WARNING: MDCI localization with Augmented Hessian Foster-Boys
  ===> : Switching off randomization!

WARNING: Post HF methods need fully converged wavefunctions
  ===> : Setting SCFConvForced true
         You can overwrite this default with %scf ConvForced false 


INFO   : the flag for use of LIBINT has been found!

================================================================================
                                       INPUT FILE
================================================================================
NAME = hydrogen_sulfide_DLPNO-CCSDT_aug-cc-pVTZ_SPE.inp
|  1> # hydrogen_sulfide DLPNO-CCSD(T)/aug-cc-pVTZ SPE
|  2> 
|  3> ! DLPNO-CCSD(T) aug-cc-pVTZ aug-cc-pVTZ/C TightSCF PAL8
|  4> %maxcore 1000
|  5> 
|  6> * xyzfile 0 1 hydrogen_sulfide_MP2_aug-cc-pVTZ_OPT.xyz
|  7> 
|  8> 
|  9>                          ****END OF INPUT****
================================================================================

                       ****************************
                       * Single Point Calculation *
                       ****************************

---------------------------------
CARTESIAN COORDINATES (ANGSTROEM)
---------------------------------
  S     -0.054329   -0.076835    0.000000
  H     -0.305859    1.235567    0.000000
  H      1.266858    0.123488    0.000000

----------------------------
CARTESIAN COORDINATES (A.U.)
----------------------------
  NO LB      ZA    FRAG     MASS         X           Y           Z
   0 S    16.0000    0    32.060   -0.102666   -0.145196    0.000000
   1 H     1.0000    0     1.008   -0.577990    2.334883    0.000000
   2 H     1.0000    0     1.008    2.394015    0.233358    0.000000

--------------------------------
INTERNAL COORDINATES (ANGSTROEM)
--------------------------------
 S      0   0   0     0.000000000000     0.00000000     0.00000000
 H      1   0   0     1.336287699908     0.00000000     0.00000000
 H      1   2   0     1.336287072625    92.22786584     0.00000000

---------------------------
INTERNAL COORDINATES (A.U.)
---------------------------
 S      0   0   0     0.000000000000     0.00000000     0.00000000
 H      1   0   0     2.525217788954     0.00000000     0.00000000
 H      1   2   0     2.525216603561    92.22786584     0.00000000

---------------------
BASIS SET INFORMATION
---------------------
There are 2 groups of distinct atoms

 Group   1 Type S   : 42s17p3d2f contracted to 6s5p3d2f pattern {131313111/77111/111/11}
 Group   2 Type H   : 6s3p2d contracted to 4s3p2d pattern {3111/111/11}

Atom   0S    basis set group =>   1
Atom   1H    basis set group =>   2
Atom   2H    basis set group =>   2
---------------------------------
AUXILIARY/C BASIS SET INFORMATION
---------------------------------
There are 2 groups of distinct atoms

 Group   1 Type S   : 11s9p8d6f3g contracted to 11s9p8d6f3g pattern {11111111111/111111111/11111111/111111/111}
 Group   2 Type H   : 5s4p3d2f contracted to 5s4p3d2f pattern {11111/1111/111/11}

Atom   0S    basis set group =>   1
Atom   1H    basis set group =>   2
Atom   2H    basis set group =>   2


           ************************************************************
           *        Program running with 8 parallel MPI-processes     *
           *              working on a common directory               *
           ************************************************************
------------------------------------------------------------------------------
                           ORCA GTO INTEGRAL CALCULATION
------------------------------------------------------------------------------

                         BASIS SET STATISTICS AND STARTUP INFO

 # of primitive gaussian shells          ...   86
 # of primitive gaussian functions       ...  172
 # of contracted shells                  ...   34
 # of contracted basis functions         ...   96
 Highest angular momentum                ...    3
 Maximum contraction depth               ...   13
 Integral package used                   ... LIBINT
 Integral threshhold            Thresh   ...  2.500e-11
 Primitive cut-off              TCut     ...  2.500e-12


------------------------------ INTEGRAL EVALUATION ----------------------------


 * One electron integrals 
 Pre-screening matrix                    ... done
 Shell pair data                         ... done (   0.000 sec)



           ************************************************************
           *        Program running with 8 parallel MPI-processes     *
           *              working on a common directory               *
           ************************************************************
-------------------------------------------------------------------------------
                                 ORCA SCF
-------------------------------------------------------------------------------

------------
SCF SETTINGS
------------
Hamiltonian:
 Ab initio Hamiltonian  Method          .... Hartree-Fock(GTOs)


General Settings:
 Integral files         IntName         .... hydrogen_sulfide_DLPNO-CCSDT_aug-cc-pVTZ_SPE
 Hartree-Fock type      HFTyp           .... RHF
 Total Charge           Charge          ....    0
 Multiplicity           Mult            ....    1
 Number of Electrons    NEL             ....   18
 Basis Dimension        Dim             ....   96
 Nuclear Repulsion      ENuc            ....     12.9469065167 Eh

Convergence Acceleration:
 DIIS                   CNVDIIS         .... on
   Start iteration      DIISMaxIt       ....    12
   Startup error        DIISStart       ....  0.200000
   # of expansion vecs  DIISMaxEq       ....     5
   Bias factor          DIISBfac        ....   1.050
   Max. coefficient     DIISMaxC        ....  10.000
 Newton-Raphson         CNVNR           .... off
 SOSCF                  CNVSOSCF        .... on
   Start iteration      SOSCFMaxIt      ....   150
   Startup grad/error   SOSCFStart      ....  0.003300
 Level Shifting         CNVShift        .... on
   Level shift para.    LevelShift      ....    0.2500
   Turn off err/grad.   ShiftErr        ....    0.0010
 Zerner damping         CNVZerner       .... off
 Static damping         CNVDamp         .... on
   Fraction old density DampFac         ....    0.7000
   Max. Damping (<1)    DampMax         ....    0.9800
   Min. Damping (>=0)   DampMin         ....    0.0000
   Turn off err/grad.   DampErr         ....    0.1000
 Fernandez-Rico         CNVRico         .... off

SCF Procedure:
 Maximum # iterations   MaxIter         ....   125
 SCF integral mode      SCFMode         .... Direct
   Integral package                     .... LIBINT
 Reset frequency        DirectResetFreq ....    20
 Integral Threshold     Thresh          ....  2.500e-11 Eh
 Primitive CutOff       TCut            ....  2.500e-12 Eh

Convergence Tolerance:
 Convergence Check Mode ConvCheckMode   .... Total+1el-Energy
 Convergence forced     ConvForced      .... 1
 Energy Change          TolE            ....  1.000e-08 Eh
 1-El. energy change                    ....  1.000e-05 Eh
 Orbital Gradient       TolG            ....  1.000e-05
 Orbital Rotation angle TolX            ....  1.000e-05
 DIIS Error             TolErr          ....  5.000e-07


Diagonalization of the overlap matrix:
Smallest eigenvalue                        ... 1.557e-04
Time for diagonalization                   ...    0.001 sec
Threshold for overlap eigenvalues          ... 1.000e-08
Number of eigenvalues below threshold      ... 0
Time for construction of square roots      ...    0.001 sec
Total time needed                          ...    0.003 sec

-------------------
DFT GRID GENERATION
-------------------

General Integration Accuracy     IntAcc      ...  4.340
Radial Grid Type                 RadialGrid  ... Gauss-Chebyshev
Angular Grid (max. acc.)         AngularGrid ... Lebedev-110
Angular grid pruning method      GridPruning ... 3 (G Style)
Weight generation scheme         WeightScheme... Becke
Basis function cutoff            BFCut       ...    1.0000e-11
Integration weight cutoff        WCut        ...    1.0000e-14
Grids for H and He will be reduced by one unit

# of grid points (after initial pruning)     ...   3394 (   0.0 sec)
# of grid points (after weights+screening)   ...   3370 (   0.0 sec)
nearest neighbour list constructed           ...    0.0 sec
Grid point re-assignment to atoms done       ...    0.0 sec
Grid point division into batches done        ...    0.0 sec
Reduced shell lists constructed in    0.0 sec

Total number of grid points                  ...     3370
Total number of batches                      ...       54
Average number of points per batch           ...       62
Average number of grid points per atom       ...     1123
Average number of shells per batch           ...    28.75 (84.56%)
Average number of basis functions per batch  ...    81.25 (84.64%)
Average number of large shells per batch     ...    25.12 (87.39%)
Average number of large basis fcns per batch ...    72.38 (89.08%)
Maximum spatial batch extension              ...  19.89, 16.28, 29.83 au
Average spatial batch extension              ...   1.54,  1.23,  1.88 au

Time for grid setup =    0.007 sec

------------------------------
INITIAL GUESS: MODEL POTENTIAL
------------------------------
Loading Hartree-Fock densities                     ... done
Calculating cut-offs                               ... done
Setting up the integral package                    ... done
Initializing the effective Hamiltonian             ... done
Starting the Coulomb interaction                   ... done (   0.0 sec)
Reading the grid                                   ... done
Mapping shells                                     ... done
Starting the XC term evaluation                    ... done (   0.0 sec)
Transforming the Hamiltonian                       ... done (   0.0 sec)
Diagonalizing the Hamiltonian                      ... done (   0.0 sec)
Back transforming the eigenvectors                 ... done (   0.0 sec)
Now organizing SCF variables                       ... done
                      ------------------
                      INITIAL GUESS DONE (   0.1 sec)
                      ------------------
--------------
SCF ITERATIONS
--------------
ITER       Energy         Delta-E        Max-DP      RMS-DP      [F,P]     Damp
               ***  Starting incremental Fock matrix formation  ***
  0   -398.6808471869   0.000000000000 0.06147006  0.00101467  0.1320138 0.7000
  1   -398.6909287642  -0.010081577326 0.04457504  0.00077284  0.0950538 0.7000
                               ***Turning on DIIS***
  2   -398.6978749756  -0.006946211362 0.10586300  0.00187136  0.0662672 0.0000
  3   -398.6938325306   0.004042445055 0.02136618  0.00041331  0.0098524 0.0000
  4   -398.7025210377  -0.008688507114 0.00416041  0.00011674  0.0047996 0.0000
                      *** Initiating the SOSCF procedure ***
                           *** Shutting down DIIS ***
                      *** Re-Reading the Fockian *** 
                      *** Removing any level shift *** 
ITER      Energy       Delta-E        Grad      Rot      Max-DP    RMS-DP
  5   -398.71230447  -0.0097834339  0.001187  0.001187  0.000917  0.000039
               *** Restarting incremental Fock matrix formation ***
  6   -398.71386781  -0.0015633344  0.000368  0.000587  0.000518  0.000016
  7   -398.71387012  -0.0000023098  0.000155  0.000443  0.000356  0.000011
  8   -398.71387067  -0.0000005496  0.000012  0.000013  0.000062  0.000001
  9   -398.71387067  -0.0000000029  0.000004  0.000008  0.000015  0.000000
                  ***Gradient check signals convergence***
              ***Rediagonalizing the Fockian in SOSCF/NRSCF***

               *****************************************************
               *                     SUCCESS                       *
               *           SCF CONVERGED AFTER  10 CYCLES          *
               *****************************************************


----------------
TOTAL SCF ENERGY
----------------

Total Energy       :         -398.71387067 Eh          -10849.55600 eV

Components:
Nuclear Repulsion  :           12.94690652 Eh             352.30324 eV
Electronic Energy  :         -411.66077719 Eh          -11201.85924 eV
One Electron Energy:         -576.63504805 Eh          -15691.03737 eV
Two Electron Energy:          164.97427086 Eh            4489.17814 eV

Virial components:
Potential Energy   :         -797.39392246 Eh          -21698.19174 eV
Kinetic Energy     :          398.68005179 Eh           10848.63574 eV
Virial Ratio       :            2.00008483


---------------
SCF CONVERGENCE
---------------

  Last Energy change         ...   -2.3357e-10  Tolerance :   1.0000e-08
  Last MAX-Density change    ...    3.0386e-06  Tolerance :   1.0000e-07
  Last RMS-Density change    ...    7.3584e-08  Tolerance :   5.0000e-09
  Last Orbital Gradient      ...    8.4353e-07  Tolerance :   1.0000e-05
  Last Orbital Rotation      ...    1.1686e-06  Tolerance :   1.0000e-05

             **** THE GBW FILE WAS UPDATED (hydrogen_sulfide_DLPNO-CCSDT_aug-cc-pVTZ_SPE.gbw) ****
             **** DENSITY FILE WAS UPDATED (hydrogen_sulfide_DLPNO-CCSDT_aug-cc-pVTZ_SPE.scfp) ****
             **** ENERGY FILE WAS UPDATED (hydrogen_sulfide_DLPNO-CCSDT_aug-cc-pVTZ_SPE.en.tmp) ****
             **** THE GBW FILE WAS UPDATED (hydrogen_sulfide_DLPNO-CCSDT_aug-cc-pVTZ_SPE.gbw) ****
             **** DENSITY FILE WAS UPDATED (hydrogen_sulfide_DLPNO-CCSDT_aug-cc-pVTZ_SPE.scfp) ****
----------------
ORBITAL ENERGIES
----------------

  NO   OCC          E(Eh)            E(eV) 
   0   2.0000     -91.966695     -2502.5410 
   1   2.0000      -8.968916      -244.0566 
   2   2.0000      -6.650206      -180.9613 
   3   2.0000      -6.649434      -180.9403 
   4   2.0000      -6.648133      -180.9049 
   5   2.0000      -0.982545       -26.7364 
   6   2.0000      -0.590042       -16.0559 
   7   2.0000      -0.501792       -13.6544 
   8   2.0000      -0.385506       -10.4901 
   9   0.0000       0.028791         0.7835 
  10   0.0000       0.049400         1.3442 
  11   0.0000       0.090570         2.4645 
  12   0.0000       0.100236         2.7276 
  13   0.0000       0.109137         2.9698 
  14   0.0000       0.141643         3.8543 
  15   0.0000       0.166860         4.5405 
  16   0.0000       0.207196         5.6381 
  17   0.0000       0.219354         5.9689 
  18   0.0000       0.238619         6.4931 
  19   0.0000       0.241282         6.5656 
  20   0.0000       0.294538         8.0148 
  21   0.0000       0.332690         9.0530 
  22   0.0000       0.340521         9.2661 
  23   0.0000       0.364268         9.9122 
  24   0.0000       0.368124        10.0172 
  25   0.0000       0.370055        10.0697 
  26   0.0000       0.401937        10.9373 
  27   0.0000       0.407079        11.0772 
  28   0.0000       0.539977        14.6935 
  29   0.0000       0.552514        15.0347 
  30   0.0000       0.581096        15.8124 
  31   0.0000       0.609263        16.5789 
  32   0.0000       0.687969        18.7206 
  33   0.0000       0.692171        18.8349 
  34   0.0000       0.706368        19.2213 
  35   0.0000       0.786825        21.4106 
  36   0.0000       0.816799        22.2262 
  37   0.0000       0.830489        22.5988 
  38   0.0000       0.851632        23.1741 
  39   0.0000       0.875059        23.8116 
  40   0.0000       0.883366        24.0376 
  41   0.0000       0.895132        24.3578 
  42   0.0000       0.916359        24.9354 
  43   0.0000       0.954370        25.9697 
  44   0.0000       0.989880        26.9360 
  45   0.0000       1.001240        27.2451 
  46   0.0000       1.056095        28.7378 
  47   0.0000       1.075750        29.2726 
  48   0.0000       1.084901        29.5217 
  49   0.0000       1.109268        30.1847 
  50   0.0000       1.127121        30.6705 
  51   0.0000       1.160556        31.5803 
  52   0.0000       1.197566        32.5874 
  53   0.0000       1.273104        34.6429 
  54   0.0000       1.339027        36.4368 
  55   0.0000       1.575705        42.8771 
  56   0.0000       1.613547        43.9068 
  57   0.0000       1.615556        43.9615 
  58   0.0000       1.659152        45.1478 
  59   0.0000       1.702028        46.3145 
  60   0.0000       1.780137        48.4400 
  61   0.0000       1.811524        49.2941 
  62   0.0000       2.049769        55.7770 
  63   0.0000       2.057566        55.9892 
  64   0.0000       2.083273        56.6887 
  65   0.0000       2.196392        59.7669 
  66   0.0000       2.260163        61.5022 
  67   0.0000       2.351005        63.9741 
  68   0.0000       2.370764        64.5118 
  69   0.0000       2.420368        65.8615 
  70   0.0000       2.436087        66.2893 
  71   0.0000       2.553609        69.4872 
  72   0.0000       2.604838        70.8813 
  73   0.0000       2.630178        71.5708 
  74   0.0000       2.691533        73.2403 
  75   0.0000       2.850807        77.5744 
  76   0.0000       3.089549        84.0709 
  77   0.0000       3.442677        93.6800 
  78   0.0000       3.540810        96.3503 
  79   0.0000       3.875489       105.4574 
  80   0.0000       3.945900       107.3734 
  81   0.0000       3.969377       108.0122 
  82   0.0000       4.006069       109.0107 
  83   0.0000       4.228216       115.0556 
  84   0.0000       4.329518       117.8122 
  85   0.0000       4.349152       118.3465 
  86   0.0000       4.412668       120.0748 
  87   0.0000       4.444497       120.9409 
  88   0.0000       4.528783       123.2345 
  89   0.0000       4.564440       124.2047 
  90   0.0000       4.612438       125.5108 
  91   0.0000       4.724773       128.5676 
  92   0.0000       4.876046       132.6840 
  93   0.0000       4.968102       135.1889 
  94   0.0000       5.507945       149.8788 
  95   0.0000       7.734535       210.4674 

                    ********************************
                    * MULLIKEN POPULATION ANALYSIS *
                    ********************************

-----------------------
MULLIKEN ATOMIC CHARGES
-----------------------
   0 S :   -0.335951
   1 H :    0.167976
   2 H :    0.167976
Sum of atomic charges:    0.0000000

--------------------------------
MULLIKEN REDUCED ORBITAL CHARGES
--------------------------------
  0 S s       :     5.805196  s :     5.805196
      pz      :     3.931639  p :    10.396192
      px      :     3.189912
      py      :     3.274640
      dz2     :     0.021068  d :     0.124749
      dxz     :     0.000450
      dyz     :     0.000901
      dx2y2   :     0.090820
      dxy     :     0.011510
      f0      :     0.000512  f :     0.009815
      f+1     :     0.002595
      f-1     :     0.002216
      f+2     :     0.000001
      f-2     :     0.000012
      f+3     :     0.001761
      f-3     :     0.002718
  1 H s       :     0.771574  s :     0.771574
      pz      :     0.028908  p :     0.053322
      px      :     0.005640
      py      :     0.018774
      dz2     :     0.000089  d :     0.007128
      dxz     :     0.000194
      dyz     :     0.004141
      dx2y2   :     0.002112
      dxy     :     0.000593
  2 H s       :     0.771573  s :     0.771573
      pz      :     0.028908  p :     0.053322
      px      :     0.019967
      py      :     0.004448
      dz2     :     0.000089  d :     0.007128
      dxz     :     0.004265
      dyz     :     0.000069
      dx2y2   :     0.001479
      dxy     :     0.001226


                     *******************************
                     * LOEWDIN POPULATION ANALYSIS *
                     *******************************

----------------------
LOEWDIN ATOMIC CHARGES
----------------------
   0 S :    1.314381
   1 H :   -0.657190
   2 H :   -0.657191

-------------------------------
LOEWDIN REDUCED ORBITAL CHARGES
-------------------------------
  0 S s       :     5.029923  s :     5.029923
      pz      :     3.385140  p :     9.437883
      px      :     2.975840
      py      :     3.076904
      dz2     :     0.032779  d :     0.178405
      dxz     :     0.002101
      dyz     :     0.004203
      dx2y2   :     0.116606
      dxy     :     0.022715
      f0      :     0.000301  f :     0.039409
      f+1     :     0.006575
      f-1     :     0.005807
      f+2     :     0.000003
      f-2     :     0.000026
      f+3     :     0.013092
      f-3     :     0.013605
  1 H s       :     0.795696  s :     0.795696
      pz      :     0.181618  p :     0.544552
      px      :     0.116766
      py      :     0.246169
      dz2     :     0.025284  d :     0.316942
      dxz     :     0.003116
      dyz     :     0.119379
      dx2y2   :     0.083333
      dxy     :     0.085830
  2 H s       :     0.795696  s :     0.795696
      pz      :     0.181618  p :     0.544553
      px      :     0.233336
      py      :     0.129599
      dz2     :     0.025284  d :     0.316942
      dxz     :     0.118573
      dyz     :     0.003922
      dx2y2   :     0.058209
      dxy     :     0.110954


                      *****************************
                      * MAYER POPULATION ANALYSIS *
                      *****************************

  NA   - Mulliken gross atomic population
  ZA   - Total nuclear charge
  QA   - Mulliken gross atomic charge
  VA   - Mayer's total valence
  BVA  - Mayer's bonded valence
  FA   - Mayer's free valence

  ATOM       NA         ZA         QA         VA         BVA        FA
  0 S     16.3360    16.0000    -0.3360     2.0338     2.0338     0.0000
  1 H      0.8320     1.0000     0.1680     1.0288     1.0288    -0.0000
  2 H      0.8320     1.0000     0.1680     1.0288     1.0288     0.0000

  Mayer bond orders larger than 0.100000
B(  0-S ,  1-H ) :   1.0169 B(  0-S ,  2-H ) :   1.0169 

-------
TIMINGS
-------

Total SCF time: 0 days 0 hours 0 min 3 sec 

Total time                  ....       3.596 sec
Sum of individual times     ....       3.262 sec  ( 90.7%)

Fock matrix formation       ....       3.013 sec  ( 83.8%)
Diagonalization             ....       0.013 sec  (  0.4%)
Density matrix formation    ....       0.002 sec  (  0.1%)
Population analysis         ....       0.039 sec  (  1.1%)
Initial guess               ....       0.089 sec  (  2.5%)
Orbital Transformation      ....       0.000 sec  (  0.0%)
Orbital Orthonormalization  ....       0.000 sec  (  0.0%)
DIIS solution               ....       0.007 sec  (  0.2%)
SOSCF solution              ....       0.091 sec  (  2.5%)


           ************************************************************
           *        Program running with 8 parallel MPI-processes     *
           *              working on a common directory               *
           ************************************************************


------------------------------------------------------------------------------- 
                              ORCA-MATRIX DRIVEN CI                            
------------------------------------------------------------------------------- 


Wavefunction type
-----------------
Correlation treatment                      ...      CCSD     
Single excitations                         ... ON
Orbital optimization                       ... OFF
Calculation of Z vector                    ... OFF
Calculation of Brueckner orbitals          ... OFF
Perturbative triple excitations            ... ON
Calculation of F12 correction              ... OFF
Frozen core treatment                      ... chemical core (10 el)
Reference Wavefunction                     ... RHF
  Internal Orbitals:     5 ...    8 (  4 MO's/  8 electrons)
  Virtual  Orbitals:     9 ...   95 ( 87 MO's              )
Number of AO's                             ...     96
Number of electrons                        ...     18
Number of correlated electrons             ...      8

Algorithmic settings
--------------------
Integral transformation                    ... All integrals via the RI transformation
K(C) Formation                             ... RI-DLPNO
   PNO-Integral Storage                    ... ON DISK
   PNO occupation number cut-off           ... 3.330e-07
   Singles PNO occupation number cut-off   ... 9.990e-09
   PNO Mulliken prescreening cut-off       ... 1.000e-03
   Domain cut-off (Mulliken population)    ... 1.000e-03
   PNO Normalization                       ...    1
Maximum number of iterations               ...        50
Convergence tolerance (max. residuum)      ... 1.000e-05
Level shift for amplitude update           ... 2.000e-01
Maximum number of DIIS vectors             ...         7
DIIS turned on at iteration                ...         0
Damping before turning on DIIS             ...     0.500
Damping after turning on DIIS              ...     0.000
Pair specific amplitude update             ... OFF
Natural orbital iterations                 ... OFF
Perturbative natural orbital generation    ... OFF
Printlevel                                 ... 2

Singles Fock matrix elements calculated using PNOs.

Memory handling:
----------------
Maximum memory for working arrays          ...   1000 MB
Data storage in matrix containers          ... UNCOMPRESSED
Data type for integral storage             ... DOUBLE
In-Core Storage of quantities:
   Amplitudes+Sigma Vector      ... NO
   J+K operators                ... NO
   DIIS vectors                 ... NO
   3-external integrals         ... NO
   4-external integrals         ... NO

Localization treatment:
-----------------------
Localization option                        ...    6
Localization threshhold                    ... -1.0e+00
Using relative localization threshhold     ... 1.0e-08
Neglect threshold for strong pairs         ... 1.000e-04 Eh
Prescreening threshold for very weak pairs ... 1.000e-06 Eh

Initializing the integral package          ... done
Localizing the valence orbitals
------------------------------------------------------------------------------
                           ORCA ORBITAL LOCALIZATION
------------------------------------------------------------------------------

Input orbitals are from                  ... hydrogen_sulfide_DLPNO-CCSDT_aug-cc-pVTZ_SPE.gbw
Output orbitals are to                   ... hydrogen_sulfide_DLPNO-CCSDT_aug-cc-pVTZ_SPE.loc
Max. number of iterations                ... 128
Localizations seeded randomly            ... off
Convergence tolerance                    ... 1.000e-06
Using relative localization threshhold   ... 1.000e-08
Treshold for strong local MOs            ... 9.500e-01
Treshold for bond MOs                    ... 8.500e-01
Operator                                 ... 0
Orbital range for localization           ... 5 to 8
Localization criterion                   ... FOSTER-BOYS (AUGMENTED HESSIAN)
Doing the dipole integrals     ... o.k.
Initial value of the localization sum :     2.641306
ITERATION   0 : L=    7.0535025589 DL=  4.41e+00 (AVERGE_DL)=    0.8575348811 
ITERATION   1 : L=    7.1222229947 DL=  6.87e-02 (AVERGE_DL)=    0.1070205866 
ITERATION   2 : L=    7.1252729813 DL=  3.05e-03 (AVERGE_DL)=    0.0225461993 
ITERATION   3 : L=    7.1253692109 DL=  9.62e-05 (AVERGE_DL)=    0.0040047804 
ITERATION   4 : L=    7.1253721049 DL=  2.89e-06 (AVERGE_DL)=    0.0006945051 
ITERATION   5 : L=    7.1253721850 DL=  8.01e-08 (AVERGE_DL)=    0.0001155327 
LOCALIZATION SUM CONVERGED

------------------------------------------------------
AUGMENTED HESSIAN OPTIMIZATION OF FOSTER-BOYS ORBITALS
------------------------------------------------------

Spin operator:           0
Orbital window:          5 to 8
Number of iterations:    128
Gradient tolerance:      1.000e-06
Number of pairs:         6
Davidson threshold:      2000
Diagonalization method:  LAPACK
Iter:    0   L: 7.1253721850   Grad. norm: 1.714108e-04
   *** Likely close to a maximum now. ***
       Augmented Hessian eigenvalues:  3.98e-09 -6.42e+00 -1.27e+01 -1.64e+01 ... 
Iter:    1   L: 7.1253721870   Grad. norm: 1.350827e-09
LOCALIZATION HAS CONVERGED.

Eigenvalues of the Hessian:
  0 -6.422e+00
  1 -1.273e+01
  2 -1.637e+01
  3 -1.721e+01
  4 -2.137e+01
  5 -2.577e+01


------------------------------------------------------------------------------- 
                    LOCALIZED MOLECULAR ORBITAL COMPOSITIONS                   
------------------------------------------------------------------------------- 

The Mulliken populations for each LMO on each atom are computed
The LMO`s will be ordered according to atom index and type
  (A) Strongly localized MO`s have populations of >=0.950 on one atom
  (B) Two center bond orbitals have populations of >=0.850 on two atoms
  (C) Other MO`s are considered to be `delocalized`

FOUND  -   2 strongly local MO`s
       -   2 two center bond MO`s
       -   0 significantly delocalized MO`s

Rather strongly localized orbitals:
MO   6:   0S  -   0.988168
MO   5:   0S  -   0.988168
Bond-like localized orbitals:
MO   8:   2H  -   0.400485  and   0S  -   0.595983
MO   7:   1H  -   0.400485  and   0S  -   0.595983
Localized MO's were stored in: hydrogen_sulfide_DLPNO-CCSDT_aug-cc-pVTZ_SPE.loc

Localizing the core orbitals
------------------------------------------------------------------------------
                           ORCA ORBITAL LOCALIZATION
------------------------------------------------------------------------------

Input orbitals are from                  ... hydrogen_sulfide_DLPNO-CCSDT_aug-cc-pVTZ_SPE.loc
Output orbitals are to                   ... hydrogen_sulfide_DLPNO-CCSDT_aug-cc-pVTZ_SPE.loc
Max. number of iterations                ... 128
Localizations seeded randomly            ... off
Convergence tolerance                    ... 1.000e-06
Using relative localization threshhold   ... 1.000e-08
Treshold for strong local MOs            ... 9.500e-01
Treshold for bond MOs                    ... 8.500e-01
Operator                                 ... 0
Orbital range for localization           ... 0 to 4
Localization criterion                   ... FOSTER-BOYS (AUGMENTED HESSIAN)
Doing the dipole integrals     ... o.k.
Initial value of the localization sum :     0.157754
ITERATION   0 : L=    0.3102558305 DL=  1.53e-01 (AVERGE_DL)=    0.1234914789 
ITERATION   1 : L=    0.3623261479 DL=  5.21e-02 (AVERGE_DL)=    0.0721597654 
ITERATION   2 : L=    0.3643961301 DL=  2.07e-03 (AVERGE_DL)=    0.0143874329 
ITERATION   3 : L=    0.3644775055 DL=  8.14e-05 (AVERGE_DL)=    0.0028526367 
ITERATION   4 : L=    0.3644829228 DL=  5.42e-06 (AVERGE_DL)=    0.0007360265 
ITERATION   5 : L=    0.3644833469 DL=  4.24e-07 (AVERGE_DL)=    0.0002059292 
LOCALIZATION SUM CONVERGED

------------------------------------------------------
AUGMENTED HESSIAN OPTIMIZATION OF FOSTER-BOYS ORBITALS
------------------------------------------------------

Spin operator:           0
Orbital window:          0 to 4
Number of iterations:    128
Gradient tolerance:      1.000e-06
Number of pairs:         10
Davidson threshold:      2000
Diagonalization method:  LAPACK
Iter:    0   L: 0.3644833469   Grad. norm: 1.422819e-04
   *** Detected a saddle point. ***
       Augmented Hessian eigenvalues:  1.75e-04  9.89e-06 -1.06e-04 -1.59e-04 ... 
Iter:    1   L: 0.3644873807   Grad. norm: 1.665680e-04
Iter:    2   L: 0.3644969819   Grad. norm: 1.838781e-04
Iter:    3   L: 0.3645090252   Grad. norm: 1.778239e-04
Iter:    4   L: 0.3645195983   Grad. norm: 1.315078e-04
Iter:    5   L: 0.3645249858   Grad. norm: 4.507585e-05
Iter:    6   L: 0.3645252413   Grad. norm: 2.122741e-06
   *** Likely close to a maximum now. ***
       Augmented Hessian eigenvalues:  1.15e-11 -1.60e-04 -1.95e-04 -2.27e-04 ... 
Iter:    7   L: 0.3645252413   Grad. norm: 1.530891e-11
LOCALIZATION HAS CONVERGED.

Eigenvalues of the Hessian:
  0 -1.599e-04
  1 -1.948e-04
  2 -2.273e-04
  3 -1.373e-01
  4 -1.379e-01
  5 -1.384e-01
  6 -4.135e-01
  7 -5.498e-01
  8 -5.516e-01
  9 -5.530e-01


------------------------------------------------------------------------------- 
                    LOCALIZED MOLECULAR ORBITAL COMPOSITIONS                   
------------------------------------------------------------------------------- 

The Mulliken populations for each LMO on each atom are computed
The LMO`s will be ordered according to atom index and type
  (A) Strongly localized MO`s have populations of >=0.950 on one atom
  (B) Two center bond orbitals have populations of >=0.850 on two atoms
  (C) Other MO`s are considered to be `delocalized`

FOUND  -   5 strongly local MO`s
       -   0 two center bond MO`s
       -   0 significantly delocalized MO`s

Rather strongly localized orbitals:
MO   4:   0S  -   1.000327
MO   3:   0S  -   0.999509
MO   2:   0S  -   0.999509
MO   1:   0S  -   1.000002
MO   0:   0S  -   1.000327
Localized MO's were stored in: hydrogen_sulfide_DLPNO-CCSDT_aug-cc-pVTZ_SPE.loc

Warning: reference  - re-canonicalizations have been set to INT 1 VIRT 1
Warning: internal orbitals are localized - no re-canonicalization of internal orbitals
Warning: UsePNO is turned on - no re-canonicalization of internal and virtual orbitals

--------------------------
CLOSED-SHELL FOCK OPERATOR
--------------------------

<ss|ss>:         5565 b            0 skpd (  0.0%)    0.006 s ( 0.001 ms/b)
<ss|sp>:        16170 b            0 skpd (  0.0%)    0.028 s ( 0.002 ms/b)
<ss|sd>:        10290 b            0 skpd (  0.0%)    0.006 s ( 0.001 ms/b)
<ss|sf>:         2940 b            0 skpd (  0.0%)    0.004 s ( 0.001 ms/b)
<ss|pp>:         6930 b            0 skpd (  0.0%)    0.008 s ( 0.001 ms/b)
<ss|pd>:         8085 b            0 skpd (  0.0%)    0.005 s ( 0.001 ms/b)
<ss|pf>:         2310 b            0 skpd (  0.0%)    0.003 s ( 0.002 ms/b)
<ss|dd>:         2940 b            0 skpd (  0.0%)    0.001 s ( 0.000 ms/b)
<ss|df>:         1470 b            0 skpd (  0.0%)    0.001 s ( 0.001 ms/b)
<ss|ff>:          315 b            0 skpd (  0.0%)    0.001 s ( 0.002 ms/b)
<sp|sp>:        11935 b            0 skpd (  0.0%)    0.019 s ( 0.002 ms/b)
<sp|sd>:        15092 b            0 skpd (  0.0%)    0.009 s ( 0.001 ms/b)
<sp|sf>:         4312 b            0 skpd (  0.0%)    0.006 s ( 0.001 ms/b)
<sp|pp>:        10164 b            0 skpd (  0.0%)    0.012 s ( 0.001 ms/b)
<sp|pd>:        11858 b            0 skpd (  0.0%)    0.009 s ( 0.001 ms/b)
<sp|pf>:         3388 b            0 skpd (  0.0%)    0.006 s ( 0.002 ms/b)
<sp|dd>:         4312 b            0 skpd (  0.0%)    0.003 s ( 0.001 ms/b)
<sp|df>:         2156 b            0 skpd (  0.0%)    0.002 s ( 0.001 ms/b)
<sp|ff>:          462 b            0 skpd (  0.0%)    0.002 s ( 0.004 ms/b)
<sd|sd>:         4851 b            0 skpd (  0.0%)    0.003 s ( 0.001 ms/b)
<sd|sf>:         2744 b            0 skpd (  0.0%)    0.004 s ( 0.002 ms/b)
<sd|pp>:         6468 b            0 skpd (  0.0%)    0.008 s ( 0.001 ms/b)
<sd|pd>:         7546 b            0 skpd (  0.0%)    0.007 s ( 0.001 ms/b)
<sd|pf>:         2156 b            0 skpd (  0.0%)    0.005 s ( 0.002 ms/b)
<sd|dd>:         2744 b            0 skpd (  0.0%)    0.003 s ( 0.001 ms/b)
<sd|df>:         1372 b            0 skpd (  0.0%)    0.002 s ( 0.002 ms/b)
<sd|ff>:          294 b            0 skpd (  0.0%)    0.002 s ( 0.006 ms/b)
<sf|sf>:          406 b            0 skpd (  0.0%)    0.002 s ( 0.005 ms/b)
<sf|pp>:         1848 b            1 skpd (  0.1%)    0.005 s ( 0.003 ms/b)
<sf|pd>:         2156 b            2 skpd (  0.1%)    0.004 s ( 0.002 ms/b)
<sf|pf>:          616 b            0 skpd (  0.0%)    0.003 s ( 0.005 ms/b)
<sf|dd>:          784 b            0 skpd (  0.0%)    0.001 s ( 0.002 ms/b)
<sf|df>:          392 b            0 skpd (  0.0%)    0.001 s ( 0.003 ms/b)
<sf|ff>:           84 b            0 skpd (  0.0%)    0.001 s ( 0.013 ms/b)
<pp|pp>:         2211 b            0 skpd (  0.0%)    0.005 s ( 0.002 ms/b)
<pp|pd>:         5082 b            0 skpd (  0.0%)    0.007 s ( 0.001 ms/b)
<pp|pf>:         1452 b            0 skpd (  0.0%)    0.004 s ( 0.003 ms/b)
<pp|dd>:         1848 b            0 skpd (  0.0%)    0.003 s ( 0.001 ms/b)
<pp|df>:          924 b            0 skpd (  0.0%)    0.002 s ( 0.002 ms/b)
<pp|ff>:          198 b            0 skpd (  0.0%)    0.002 s ( 0.008 ms/b)
<pd|pd>:         3003 b            0 skpd (  0.0%)    0.005 s ( 0.002 ms/b)
<pd|pf>:         1694 b            0 skpd (  0.0%)    0.005 s ( 0.003 ms/b)
<pd|dd>:         2156 b            0 skpd (  0.0%)    0.005 s ( 0.002 ms/b)
<pd|df>:         1078 b            0 skpd (  0.0%)    0.004 s ( 0.004 ms/b)
<pd|ff>:          231 b            0 skpd (  0.0%)    0.003 s ( 0.012 ms/b)
<pf|pf>:          253 b            0 skpd (  0.0%)    0.002 s ( 0.008 ms/b)
<pf|dd>:          616 b            0 skpd (  0.0%)    0.002 s ( 0.004 ms/b)
<pf|df>:          308 b            0 skpd (  0.0%)    0.002 s ( 0.006 ms/b)
<pf|ff>:           66 b            0 skpd (  0.0%)    0.002 s ( 0.024 ms/b)
<dd|dd>:          406 b            0 skpd (  0.0%)    0.001 s ( 0.004 ms/b)
<dd|df>:          392 b            0 skpd (  0.0%)    0.002 s ( 0.005 ms/b)
<dd|ff>:           84 b            0 skpd (  0.0%)    0.002 s ( 0.019 ms/b)
<df|df>:          105 b            0 skpd (  0.0%)    0.001 s ( 0.012 ms/b)
<df|ff>:           42 b            0 skpd (  0.0%)    0.001 s ( 0.035 ms/b)
<ff|ff>:            6 b            0 skpd (  0.0%)    0.000 s ( 0.081 ms/b)
Time needed for Fock operator              ...            0.245 sec
Reference energy                           ...   -398.713870668

--------------
DLPNO SETTINGS (2015 fully linear scaling implementation)
--------------

TCutMKN:           1.000e-03
TCutPAO:           1.000e-03
TCutPNO:           3.330e-07
TCutPNOSingles:    9.990e-09
TCutEN:            9.700e-01
TCutPAOExt:        1.000e-01
TCutPairs:         1.000e-04
TCutPre:           1.000e-06
TCutOSV:           1.000e-06
TCutDOij:          1.000e-05
TCutDO:            1.000e-02
TCutC:             1.000e-04
TCutCPAO:          1.000e-03
TCutCMO:           1.000e-03
TScaleDOMP2PreScr: 2.000e+00
TScaleMKNMP2PreScr:1.000e+01
TScalePNOMP2PreScr:1.000e+00
PAO overlap thresh 1.000e-08
Using PNOs for Singles Fock computation
Use new domains
Use fully linear algorithm
TCutTNO:           1.000e-09
TCutMP2Pairs:      1.000e-05
TCutDOStrong:      2.000e-03
TCutMKNStrong:     1.000e-02
TCutMKNWeak:       1.000e-01
TCutDOWeak:        4.000e-03
NTCutTNO:          1

--------------------------
Calculating differential overlap integrals ... ok
--------------------------
ELECTRON PAIR PRESCREENING
--------------------------

Dipole-based pair screening          .... used

   TCutDOij = 1.000000e-05
   TCutPre  = 1.000000e-06
   .... Finished loop over pairs
Total time spent in the prescreening                  ...     0.000 sec
sum of pair energies estimated for screened out pairs ...       0.000000000000 Eh
Thresholds for map construction and integral transformation for crude MP2:
   TCutMKN                    ...     1.0e-02
   TCutDO                     ...     2.0e-02
   TCutPairs                  ...     1.0e-04
   TCutPNO_CrudeMP2           ...     3.3e-07
   TCutPNOSingles_CrudeMP2    ...     1.0e-08
--------------------------------
LOCAL RI TRANSFORMATION (IAVPAO)
--------------------------------

Orbital window:       5 to 8
Number of PAOs:      96
Basis functions:     96 (34 shells)
Aux. functions:     239 (65 shells)

Processing maps (0.0 sec)
Average map sizes:
   Aux shells -> MOs               4.0
   Aux shells -> PAOs             96.0
   MOs        -> AO shells        34.0
   PAOs       -> AO shells        34.0

Calculating integrals (0.2 sec, 0.703 MB)
Sorting integrals (0.0 sec, 0.700 MB)
Total time for the integral transformation: 0.2 sec
--------------------------------
INITIAL GUESS AND PNO GENERATION
--------------------------------

PNO truncation parameters                   .... 
    PAOOverlapThresh   =        1.000e-08

    TCutPairs          =        1.000e-04
    TCutPNO            =        3.330e-07
    TCutPNOSingles     =        9.990e-09
    TCutMP2Pairs       =        1.000e-05
    TCutMKN            =        1.000e-02
    TCutDO             =        2.000e-02

Pair selection                          .... not used
Type of local MP2 treatment                 .... semi-local MP2
Strategy for PNO selection                  .... occupation number selection
Pair density normalization                  .... MP2 norm
Spin component scaling                      .... not used

   .... Finished loop over pairs
Making pair pair interaction lists          ... done

                       ===========================
                         10 OF   10 PAIRS ARE KEPT CCSD PAIRS
                          0 OF   10 PAIRS ARE KEPT MP2 PAIRS FOR (T)
                          0 OF   10 PAIRS ARE SKIPPED
                       ===========================

Total time spent in the initial guess                 ...     0.019 sec
SL-MP2 correlation energy (all non-screened pairs)    ...      -0.188860326202 Eh

Initial PNO correlation energy                        ...      -0.188772859317 Eh
sum of pair energies prescreened and skipped MP2 pairs...       0.000000000000 Eh
sum of pair energies of crude MP2 skipped pairs only  ...       0.000000000000 Eh
sum of MP2 pair energies for pairs that were not kept ...       0.000000000000 Eh
sum of PNO error estimates for the kept pairs         ...      -0.000087466884 Eh
                                                          --------------------
sum of all corrections                                         -0.000087466884
Initial total correlation energy                               -0.188860326202
Thresholds for map construction and integral transformation for fine MP2 and CCSD(T) calculation:
   TCutMKN   ...     1.0e-03
   TCutDO    ...     1.0e-02
   TCutPairs ...     1.0e-04
   TCutCMO   ...     1.0e-03
   TCutCPAO  ...     1.0e-03

Thresholds for map construction and integral transformation for strong Triples:
   TCutMKN   ...     1.0e-02
   TCutDO    ...     2.0e-02
   TCutCMO   ...     1.0e-03
   TCutCPAO  ...     1.0e-03

Thresholds for map construction and integral transformation for weak Triples:
   TCutMKN   ...     1.0e-01
   TCutDO    ...     4.0e-02
   TCutCMO   ...     1.0e-03
   TCutCPAO  ...     1.0e-03

--------------------------------
LOCAL RI TRANSFORMATION (IAVPAO)
--------------------------------

Orbital window:       5 to 8
Number of PAOs:      96
Basis functions:     96 (34 shells)
Aux. functions:     239 (65 shells)

Processing maps (0.0 sec)
Average map sizes:
   Aux shells -> MOs               4.0
   Aux shells -> PAOs             96.0
   MOs        -> AO shells        34.0
   PAOs       -> AO shells        34.0

Calculating integrals (0.2 sec, 0.703 MB)
Sorting integrals (0.0 sec, 0.700 MB)
Total time for the integral transformation: 0.2 sec
--------------------------------
INITIAL GUESS AND PNO GENERATION
--------------------------------

PNO truncation parameters                   .... 
    PAOOverlapThresh   =        1.000e-08

    TCutPairs          =        1.000e-04
    TCutPNO            =        3.330e-07
    TCutPNOSingles     =        9.990e-09
    TCutMP2Pairs       =        1.000e-05
    TCutMKN            =        1.000e-03
    TCutDO             =        1.000e-02

Pair selection                          .... not used
Type of local MP2 treatment                 .... semi-local MP2
Strategy for PNO selection                  .... occupation number selection
Pair density normalization                  .... MP2 norm
Spin component scaling                      .... not used

   .... Finished loop over pairs

 PNO Occupation Number Statistics: 
  | Av. % of trace(Dij) retained        ...  99.980959214243
  | sigma^2 in % of trace(Dij) retained ...   5.36e-05
  | Av. % of trace(Di) retained         ...  99.999679339808
  | sigma^2 in % of trace(Di) retained  ...   4.85e-11
 Distributions of % trace(Dij) recovered:
  |       >= 99.9  ...    10 (100.0 % of all pairs)
 Distributions of % trace(Di) recovered :
  |       >= 99.9  ...     4 (100.0 % of all I-pairs )

Making pair pair interaction lists          ... done

                       ===========================
                         10 OF   10 PAIRS ARE KEPT
                       ===========================

Total time spent in the initial guess                 ...     0.288 sec
SL-MP2 correlation energy (all non-screened pairs)    ...      -0.188913774998 Eh

Initial PNO correlation energy                        ...      -0.188815874850 Eh
sum of pair energies estimated for screened out pairs ...       0.000000000000 Eh
sum of MP2 pair energies for pairs that were not kept ...       0.000000000000 Eh
sum of PNO error estimates for the kept pairs         ...      -0.000097900148 Eh
                                                          --------------------
sum of all corrections                                         -0.000097900148
Initial total correlation energy                               -0.188913774998
Thresholds for map construction and integral transformation for fine MP2 and CCSD(T) calculation:
   TCutMKN   ...     1.0e-03
   TCutDO    ...     1.0e-02
   TCutPairs ...     1.0e-04
   TCutCMO   ...     1.0e-03
   TCutCPAO  ...     1.0e-03

Time for aux screen maps:            0.000
Time for maps after fine MP2:            0.001
-----------------------------
LOCAL RI TRANSFORMATION (IJV)
-----------------------------

Orbital window:       5 to 8
Basis functions:     96 (34 shells)
Aux. functions:     239 (65 shells)

Processing maps (0.0 sec)
Average map sizes:
   Aux shells -> MOs(i)            4.0
   Aux shells -> MOs(j)            4.0
   MOs        -> AO shells        34.0

Calculating integrals (0.2 sec, 0.032 MB)
Sorting integrals (0.0 sec, 0.029 MB)
Total time for the integral transformation: 0.2 sec
--------------------------------
LOCAL RI TRANSFORMATION (VABPAO)
--------------------------------

Number of PAOs:      96
Basis functions:     96 (34 shells)
Aux. functions:     239 (65 shells)

Processing maps (0.0 sec)
Average map sizes:
   Aux shells -> PAOs             96.0
   PAOs       -> AO shells        34.0

Calculating integrals (2.5 sec, 31.857 MB)
Finished


-------------------------------------
Pair Pair Term precalculation with     
RI-(ij|mn) and (im|jn) transformation  
ON THE FLY                             
-------------------------------------

   IBatch   1 (of   1)              ... done (    0.349 sec)
Total EXT                           ...           0.349 sec

---------------------
RI-PNO TRANSFORMATION
---------------------

Total Number of PNOs                   ...   497
Average number of PNOs per pair        ...    49
Maximal number of PNOs per pair        ...    53
   #pairs with  1 -  5 PNOs   :    0
   #pairs with  6 - 10 PNOs   :    0
   #pairs with 11 - 15 PNOs   :    0
   #pairs with 16 - 20 PNOs   :    0
   #pairs with 21 - 25 PNOs   :    0
   #pairs with 26 - 30 PNOs   :    0
   #pairs with 31 - 35 PNOs   :    0
   #pairs with 36 - 40 PNOs   :    0
   #pairs with 41 - 45 PNOs   :    2
   #pairs with 46 - 50 PNOs   :    2
   #pairs with 51 - 55 PNOs   :    6

Generation of (ij|ab)[P] integrals            ... on
Generation of (ia|bc)[P],(ja|bc)[P] integrals ... on
Storage of 3 and 4 external integrals         ... on
Generation of ALL (ka|bc)[P] integrals        ... on
Keep RI integrals in memory                   ... off

Ibatch:  1 (of  1)
Starting 2-4 index PNO integral generation ... done

Timings:
Total PNO integral transformation time     ...         12.101 sec
Size of the 3-external file                ...         9 MB
Size of the 4-external file                ...        62 MB
Size of the IKJL file                      ...         0 MB
Size of the all 3-external file            ...        19 MB
Size of the 1-external file                ...         0 MB

Making pair/pair overlap matrices          ... done (    0.306 sec)
Size of the pair overlap file              ... 2 MB
Redoing the guess amplitudes               ... done (    0.000 sec)

-------------------------
FINAL STARTUP INFORMATION
-------------------------

E(0)                                       ...   -398.713870668
E(SL-MP2)                                  ...     -0.188913775
E(SL-MP2) including corrections            ...     -0.188913775
Initial E(tot)                             ...   -398.902784443
<T|T>                                      ...      0.070936013
Number of pairs included                   ... 10
Total number of pairs                      ... 10

------------------------------------------------
                  RHF COUPLED CLUSTER ITERATIONS
------------------------------------------------

Number of PNO amplitudes to be optimized   ...        24823
Number of non-PNO amplitudes               ...        75690
Untruncated number of regular amplitudes   ...        75690

Iter       E(tot)           E(Corr)          Delta-E          Residual     Time
  0   -398.902787161     -0.188818593      0.000095182      0.012050853    0.68
                           *** Turning on DIIS ***
  1   -398.922671740     -0.208703171     -0.019884578      0.007524381    0.57
  2   -398.931196698     -0.217228130     -0.008524959      0.002354414    0.56
  3   -398.932203202     -0.218234634     -0.001006504      0.000978113    0.63
  4   -398.932454204     -0.218485636     -0.000251002      0.000183442    0.56
  5   -398.932514792     -0.218546224     -0.000060589      0.000065191    0.56
  6   -398.932525319     -0.218556751     -0.000010527      0.000021777    0.63
  7   -398.932526930     -0.218558361     -0.000001610      0.000007740    0.57
               --- The Coupled-Cluster iterations have converged ---

----------------------
COUPLED CLUSTER ENERGY
----------------------

E(0)                                       ...   -398.713870668
E(CORR)(strong-pairs)                      ...     -0.218558361
E(CORR)(weak-pairs)                        ...     -0.000097900
E(CORR)(corrected)                         ...     -0.218656262
E(TOT)                                     ...   -398.932526930
Singles Norm <S|S>**1/2                    ...      0.027379493  
T1 diagnostic                              ...      0.009680113  

------------------
LARGEST AMPLITUDES
------------------
   7->  9   7->  9       0.047315
   8->  9   8->  9       0.047314
   6-> 10   6-> 10       0.043558
   5-> 10   5-> 10       0.043558
   6-> 10   6-> 22       0.027307
   6-> 22   6-> 10       0.027307
   5-> 10   5-> 22       0.027307
   5-> 22   5-> 10       0.027307
   8-> 10   8-> 10       0.026656
   7-> 10   7-> 10       0.026656
   5-> 11   5-> 11       0.026073
   6-> 11   6-> 11       0.026073
   7-> 12   7-> 12       0.024323
   8-> 12   8-> 12       0.024323
   6-> 12   6-> 12       0.021396
   5-> 12   5-> 12       0.021396


-------------------------------------------
DLPNO BASED TRIPLES CORRECTION
-------------------------------------------

Singles multiplier          ...  1.000000
TCutTNO                     ... 1.000e-09
TCutMP2Pairs                ... 1.000e-05
TCutDOStrong                ... 2.000e-02
TCutMKNStrong               ... 1.000e-02
TCutDOWeak                  ... 4.000e-02
TCutMKNWeak                 ... 1.000e-01

Fragment selection                          .... not used
Fock matrix occ-virt block is zero --> Setting DT_in_Triples to false.
Number of Triples that are to be computed   ...        16

 . . . . . . . . .
10% done  
20% done  
30% done  
40% done  
50% done  
60% done  
70% done  
80% done  
90% done               (      0.440 sec)
Triples timings:
Total time for T0               ...     0.482 sec
Total time for Iterative (T)    ...     0.000 sec
Total time of overall (T)       ...     0.482 sec

Triples List generation         ...     0.000 sec
TNO generation                  ...     0.041 sec
Pair density generation         ...     0.001 sec
Look up tables                  ...     0.000 sec
Generating 3-index integrals    ...     0.146 sec
  Make 4-ind.int. from 3-ind.int...     0.120 sec
  Projecting amplitudes (D + S) ...     0.009 sec
  Downprojecting integrals      ...     0.000 sec
  Energy contr. (sum over a,b,c)...     0.016 sec
Fitting ET(->0)                 ...     0.000 sec

Everything after 3-index        ...     0.294 sec

Timing details:
 TNO integrals                  ...     0.264 sec
   Reading 3-index integrals    ...     0.003 sec
   Sorting integrals            ...     0.016 sec
       Sorting integrals 1      ...     0.000 sec
       Sorting integrals 2      ...     0.002 sec
       Sorting integrals 3      ...     0.001 sec
       Sorting integrals 4      ...     0.000 sec
       Sorting integrals 5      ...     0.000 sec
       Sorting integrals 6      ...     0.013 sec
   Calculating local VM**-1/2   ...     0.002 sec
   Orthogonal. integrals        ...     0.006 sec
   Multipl. 3-index integrals   ...     0.237 sec
   All concerning IRIab (w/TNO) ...     0.096 sec

 Calculate W0/W1                ...     0.148 sec
 W 3-ext contribution           ...     0.132 sec
 W 3-int contribution           ...     0.007 sec
 Sorting W                      ...     0.009 sec

 V exchange contribution        ...     0.008 sec

 Timings for Triples without generation
     of 3-index integrals       ...     0.294 sec
       0 weak pairs             ...     0.294 sec
       1 weak pair              ...     0.000 sec
       2 weak pairs             ...     0.000 sec
       3 weak pairs             ...     0.000 sec
  Extra time for extrapolation  ...     0.000 sec

Number of Triples   (0, 1, 2, 3 weak pairs; overall):     16       0       0       0  (    16)
Number of Atoms     (0, 1, 2, 3 weak pairs; overall):    3.0     0.0     0.0     0.0  (     3)
Number of PAOs      (0, 1, 2, 3 weak pairs; overall):   96.0     0.0     0.0     0.0  (    96)
Number of AuxFcns   (0, 1, 2, 3 weak pairs; overall):  198.8     0.0     0.0     0.0  (   239)
Number of TNOs      (0, 1, 2, 3 weak pairs         ):   78.2     0.0     0.0     0.0
Aver. Number of NTNO, Atoms, PAOs, AuxFcns / Triples:     16    78.2     3.0    96.0   198.8

Triples Correction (T)                     ...     -0.008212858
Final correlation energy                   ...     -0.226869120
E(CCSD)                                    ...   -398.932526930
E(CCSD(T))                                 ...   -398.940739788


Maximum memory used throughout the entire calculation: 352.9 MB


------------------------------------------------------------------------------- 
                                     TIMINGS                                   
------------------------------------------------------------------------------- 


Total execution time                   ...       22.248 sec

Localization of occupied MO's          ...        0.496 sec (  2.2%)
Fock Matrix Formation                  ...        0.245 sec (  1.1%)
Global overlap, Fock, MKN matrices     ...        0.062 sec (  0.3%)
Differential overlap integrals         ...        0.008 sec (  0.0%)
Organizing maps                        ...        0.001 sec (  0.0%)
RI 3-index integral generations        ...        2.954 sec ( 13.3%)
RI-PNO integral transformation         ...       12.808 sec ( 57.6%)
Initial Guess                          ...        0.310 sec (  1.4%)
DIIS Solver                            ...        0.008 sec (  0.0%)
State Vector Update                    ...        0.000 sec (  0.0%)
Sigma-vector construction              ...        4.757 sec ( 21.4%)
  <D|H|D>(0-ext)                       ...        0.029 sec (  0.6% of sigma)
  <D|H|D>(2-ext Fock)                  ...        0.002 sec (  0.0% of sigma)
  <D|H|D>(2-ext)                       ...        0.126 sec (  2.7% of sigma)
  <D|H|D>(4-ext)                       ...        0.603 sec ( 12.7% of sigma)
  <D|H|D>(4-ext-corr)                  ...        2.571 sec ( 54.0% of sigma)
  CCSD doubles correction              ...        0.002 sec (  0.0% of sigma)
  <S|H|S>                              ...        0.012 sec (  0.3% of sigma)
  <S|H|D>(1-ext)                       ...        0.005 sec (  0.1% of sigma)
  <S|H|D>(3-ext)                       ...        0.013 sec (  0.3% of sigma)
  Fock-dressing                        ...        0.092 sec (  1.9% of sigma)
  Singles amplitudes                   ...        0.004 sec (  0.1% of sigma)
  (ik|jl)-dressing                     ...        0.020 sec (  0.4% of sigma)
  (ij|ab),(ia|jb)-dressing             ...        0.311 sec (  6.5% of sigma)
Total Time for computing (T)           ...        0.493 sec (  2.2% of ALL)


-------------------------   --------------------
FINAL SINGLE POINT ENERGY      -398.940739788084
-------------------------   --------------------


                            ***************************************
                            *     ORCA property calculations      *
                            ***************************************

                                    ---------------------
                                    Active property flags
                                    ---------------------
   (+) Dipole Moment


------------------------------------------------------------------------------
                       ORCA ELECTRIC PROPERTIES CALCULATION
------------------------------------------------------------------------------

Dipole Moment Calculation                       ... on
Quadrupole Moment Calculation                   ... off
Polarizability Calculation                      ... off
GBWName                                         ... hydrogen_sulfide_DLPNO-CCSDT_aug-cc-pVTZ_SPE.gbw
Electron density file                           ... hydrogen_sulfide_DLPNO-CCSDT_aug-cc-pVTZ_SPE.scfp
The origin for moment calculation is the CENTER OF MASS  = (-0.042873, -0.060635  0.000000)

-------------
DIPOLE MOMENT
-------------
                                X             Y             Z
Electronic contribution:     -0.69722      -0.98602       0.00000
Nuclear contribution   :      0.94507       1.33653       0.00000
                        -----------------------------------------
Total Dipole Moment    :      0.24785       0.35052       0.00000
                        -----------------------------------------
Magnitude (a.u.)       :      0.42929
Magnitude (Debye)      :      1.09118



--------------------
Rotational spectrum 
--------------------
 
Rotational constants in cm-1:    10.357175     9.015168     4.819844 
Rotational constants in MHz : 310500.288393 270267.946337 144495.291345 

 Dipole components along the rotational axes: 
x,y,z [a.u.] :     0.000001     0.429293     0.000000 
x,y,z [Debye]:     0.000004     1.091177     0.000000 

 

Timings for individual modules:

Sum of individual times         ...       26.858 sec (=   0.448 min)
GTO integral calculation        ...        0.629 sec (=   0.010 min)   2.3 %
SCF iterations                  ...        3.767 sec (=   0.063 min)  14.0 %
MDCI module                     ...       22.462 sec (=   0.374 min)  83.6 %
                             ****ORCA TERMINATED NORMALLY****
TOTAL RUN TIME: 0 days 0 hours 0 minutes 27 seconds 215 msec
