
                                 *****************
                                 * O   R   C   A *
                                 *****************

           --- An Ab Initio, DFT and Semiempirical electronic structure package ---

                  #######################################################
                  #                        -***-                        #
                  #          Department of theory and spectroscopy      #
                  #               Directorship: Frank Neese             #
                  #        Max Planck Institute fuer Kohlenforschung    #
                  #                Kaiser Wilhelm Platz 1               #
                  #                 D-45470 Muelheim/Ruhr               #
                  #                      Germany                        #
                  #                                                     #
                  #                  All rights reserved                #
                  #                        -***-                        #
                  #######################################################


                         Program Version 4.2.1 -  RELEASE  -


 With contributions from (in alphabetic order):
   Daniel Aravena         : Magnetic Suceptibility
   Michael Atanasov       : Ab Initio Ligand Field Theory (pilot matlab implementation)
   Alexander A. Auer      : GIAO ZORA, VPT2
   Ute Becker             : Parallelization
   Giovanni Bistoni       : ED, misc. LED, open-shell LED, HFLD
   Martin Brehm           : Molecular dynamics
   Dmytro Bykov           : SCF Hessian
   Vijay G. Chilkuri      : MRCI spin determinant printing, contributions to CSF-ICE
   Dipayan Datta          : RHF DLPNO-CCSD density
   Achintya Kumar Dutta   : EOM-CC, STEOM-CC
   Dmitry Ganyushin       : Spin-Orbit,Spin-Spin,Magnetic field MRCI
   Miquel Garcia          : C-PCM Hessian, Gaussian charge scheme
   Yang Guo               : DLPNO-NEVPT2, CIM, IAO-localization
   Andreas Hansen         : Spin unrestricted coupled pair/coupled cluster methods
   Benjamin Helmich-Paris : CASSCF linear response (MC-RPA)
   Lee Huntington         : MR-EOM, pCC
   Robert Izsak           : Overlap fitted RIJCOSX, COSX-SCS-MP3, EOM
   Christian Kollmar      : KDIIS, OOCD, Brueckner-CCSD(T), CCSD density
   Simone Kossmann        : Meta GGA functionals, TD-DFT gradient, OOMP2, MP2 Hessian
   Martin Krupicka        : AUTO-CI
   Lucas Lang             : DCDCAS
   Dagmar Lenk            : GEPOL surface, SMD
   Dimitrios Liakos       : Extrapolation schemes; Compound Job, initial MDCI parallelization
   Dimitrios Manganas     : Further ROCIS development; embedding schemes
   Dimitrios Pantazis     : SARC Basis sets
   Taras Petrenko         : DFT Hessian,TD-DFT gradient, ASA, ECA, R-Raman, ABS, FL, XAS/XES, NRVS
   Peter Pinski           : DLPNO-MP2, DLPNO-MP2 Gradient
   Christoph Reimann      : Effective Core Potentials
   Marius Retegan         : Local ZFS, SOC
   Christoph Riplinger    : Optimizer, TS searches, QM/MM, DLPNO-CCSD(T), (RO)-DLPNO pert. Triples
   Tobias Risthaus        : Range-separated hybrids, TD-DFT gradient, RPA, STAB
   Michael Roemelt        : Original ROCIS implementation
   Masaaki Saitow         : Open-shell DLPNO-CCSD energy and density
   Barbara Sandhoefer     : DKH picture change effects
   Avijit Sen             : IP-ROCIS
   Kantharuban Sivalingam : CASSCF convergence, NEVPT2, FIC-MRCI
   Bernardo de Souza      : ESD, SOC TD-DFT
   Georgi Stoychev        : AutoAux, RI-MP2 NMR
   Willem Van den Heuvel  : Paramagnetic NMR
   Boris Wezisla          : Elementary symmetry handling
   Frank Wennmohs         : Technical directorship


 We gratefully acknowledge several colleagues who have allowed us to
 interface, adapt or use parts of their codes:
   Stefan Grimme, W. Hujo, H. Kruse,             : VdW corrections, initial TS optimization,
                  C. Bannwarth                     DFT functionals, gCP, sTDA/sTD-DF
   Ed Valeev, F. Pavosevic, A. Kumar             : LibInt (2-el integral package), F12 methods
   Garnet Chan, S. Sharma, J. Yang, R. Olivares  : DMRG
   Ulf Ekstrom                                   : XCFun DFT Library
   Mihaly Kallay                                 : mrcc  (arbitrary order and MRCC methods)
   Andreas Klamt, Michael Diedenhofen            : otool_cosmo (COSMO solvation model)
   Jiri Pittner, Ondrej Demel                    : Mk-CCSD
   Frank Weinhold                                : gennbo (NPA and NBO analysis)
   Christopher J. Cramer and Donald G. Truhlar   : smd solvation model
   Lars Goerigk                                  : TD-DFT with DH, B97 family of functionals
   V. Asgeirsson, H. Jonsson                     : NEB implementation
   FAccTs GmbH                                   : IRC, NEB, NEB-TS, Multilevel, MM, QM/MM, CI optimization
   S Lehtola, MJT Oliveira, MAL Marques          : LibXC Library


 Your calculation uses the libint2 library for the computation of 2-el integrals
 For citations please refer to: http://libint.valeyev.net

 Your ORCA version has been built with support for libXC version: 4.2.3
 For citations please refer to: https://tddft.org/programs/libxc/

 This ORCA versions uses:
   CBLAS   interface :  Fast vector & matrix operations
   LAPACKE interface :  Fast linear algebra routines
   SCALAPACK package :  Parallel linear algebra routines




***************************************
The coordinates will be read from file: hydrogen_sulfide_B3LYP_cc-pVTZ_OPT.xyz
***************************************


----- Orbital basis set information -----
Your calculation utilizes the basis: aug-cc-pVTZ 
    H, B-Ne : Obtained from the ccRepo (grant-hill.group.shef.ac.uk/ccrepo) Feb. 2017
              R. A. Kendall, T. H. Dunning, Jr., R. J. Harrison, J. Chem. Phys. 96, 6796 (1992)
         He : Obtained from the ccRepo (grant-hill.group.shef.ac.uk/ccrepo) Feb. 2017
              D. E. Woon, T. H. Dunning, Jr., J. Chem. Phys. 100, 2975 (1994)
  Li-Be, Na : Obtained from the ccRepo (grant-hill.group.shef.ac.uk/ccrepo) Feb. 2017
              B. P. Prascher, D. E. Woon, K. A. Peterson, T. H. Dunning, Jr., A. K. Wilson, Theor. Chem. Acc. 128, 69 (2011)
         Mg : Obtained from the Peterson Research Group Website (tyr0.chem.wsu.edu/~kipeters) Feb. 2017
              B. P. Prascher, D. E. Woon, K. A. Peterson, T. H. Dunning, Jr., A. K. Wilson, Theor. Chem. Acc. 128, 69 (2011)
      Al-Ar : Obtained from the ccRepo (grant-hill.group.shef.ac.uk/ccrepo) Feb. 2017
              D. E. Woon, T. H. Dunning, Jr., J. Chem. Phys. 98, 1358 (1993)
      Sc-Zn : Obtained from the ccRepo (grant-hill.group.shef.ac.uk/ccrepo) Feb. 2017
              N. B. Balabanov, K. A. Peterson, J. Chem. Phys. 123, 064107 (2005)
              N. B. Balabanov, K. A. Peterson, J. Chem. Phys. 125, 074110 (2006)
      Ga-Kr : Obtained from the ccRepo (grant-hill.group.shef.ac.uk/ccrepo) Feb. 2017
              A. K. Wilson, D. E. Woon, K. A. Peterson, T. H. Dunning, Jr., J. Chem. Phys. 110, 7667 (1999)
     Ag, Au : Obtained from the Peterson Research Group Website (tyr0.chem.wsu.edu/~kipeters) Feb. 2017
              K. A. Peterson, C. Puzzarini, Theor. Chem. Acc. 114, 283 (2005)

================================================================================
                                        WARNINGS
                       Please study these warnings very carefully!
================================================================================


WARNING: The frozen-core approximation for MP2-gradient calculations is turned on by default.

WARNING: Geometry Optimization
  ===> : Switching off AutoStart
         For restart on a previous wavefunction, please use MOREAD

WARNING: Post HF methods need fully converged wavefunctions
  ===> : Setting SCFConvForced true
         You can overwrite this default with %scf ConvForced false 


INFO   : the flag for use of LIBINT has been found!

================================================================================
                                       INPUT FILE
================================================================================
NAME = hydrogen_sulfide_MP2_aug-cc-pVTZ_OPT.inp
|  1> # hydrogen_sulfide MP2/aug-cc-pVTZ Optimization
|  2> 
|  3> ! MP2 aug-cc-pVTZ TightSCF Opt PAL8
|  4> %maxcore 1000
|  5> 
|  6> * xyzfile 0 1 hydrogen_sulfide_B3LYP_cc-pVTZ_OPT.xyz
|  7> 
|  8> 
|  9>                          ****END OF INPUT****
================================================================================

                       *****************************
                       * Geometry Optimization Run *
                       *****************************

Geometry optimization settings:
Update method            Update   .... BFGS
Choice of coordinates    CoordSys .... Z-matrix Internals
Initial Hessian          InHess   .... Almoef's Model

Convergence Tolerances:
Energy Change            TolE     ....  5.0000e-06 Eh
Max. Gradient            TolMAXG  ....  3.0000e-04 Eh/bohr
RMS Gradient             TolRMSG  ....  1.0000e-04 Eh/bohr
Max. Displacement        TolMAXD  ....  4.0000e-03 bohr
RMS Displacement         TolRMSD  ....  2.0000e-03 bohr
Strict Convergence                ....  False
------------------------------------------------------------------------------
                        ORCA OPTIMIZATION COORDINATE SETUP
------------------------------------------------------------------------------

The optimization will be done in new redundant internal coordinates
Making redundant internal coordinates   ...  (new redundants) done
Evaluating the initial hessian          ...  (Almloef) done
Evaluating the coordinates              ...  done
Calculating the B-matrix                .... done
Calculating the G-matrix                .... done
Diagonalizing the G-matrix              .... done
The first mode is                       ....    0
The number of degrees of freedom        ....    3

    -----------------------------------------------------------------
                    Redundant Internal Coordinates


    -----------------------------------------------------------------
         Definition                    Initial Value    Approx d2E/dq
    -----------------------------------------------------------------
      1. B(H   1,S   0)                  1.3449         0.380632   
      2. B(H   2,S   0)                  1.3453         0.380137   
      3. A(H   1,S   0,H   2)           92.5063         0.338180   
    -----------------------------------------------------------------

Number of atoms                         .... 3
Number of degrees of freedom            .... 3

         *************************************************************
         *                GEOMETRY OPTIMIZATION CYCLE   1            *
         *************************************************************
---------------------------------
CARTESIAN COORDINATES (ANGSTROEM)
---------------------------------
  S     -0.055870   -0.078797    0.000000
  H     -0.312146    1.241465    0.000000
  H      1.274687    0.119552    0.000000

----------------------------
CARTESIAN COORDINATES (A.U.)
----------------------------
  NO LB      ZA    FRAG     MASS         X           Y           Z
   0 S    16.0000    0    32.060   -0.105579   -0.148905    0.000000
   1 H     1.0000    0     1.008   -0.589871    2.346029    0.000000
   2 H     1.0000    0     1.008    2.408808    0.225921    0.000000

--------------------------------
INTERNAL COORDINATES (ANGSTROEM)
--------------------------------
 S      0   0   0     0.000000000000     0.00000000     0.00000000
 H      1   0   0     1.344905231196     0.00000000     0.00000000
 H      1   2   0     1.345259807628    92.50627599     0.00000000

---------------------------
INTERNAL COORDINATES (A.U.)
---------------------------
 S      0   0   0     0.000000000000     0.00000000     0.00000000
 H      1   0   0     2.541502563039     0.00000000     0.00000000
 H      1   2   0     2.542172615389    92.50627599     0.00000000

---------------------
BASIS SET INFORMATION
---------------------
There are 2 groups of distinct atoms

 Group   1 Type S   : 42s17p3d2f contracted to 6s5p3d2f pattern {131313111/77111/111/11}
 Group   2 Type H   : 6s3p2d contracted to 4s3p2d pattern {3111/111/11}

Atom   0S    basis set group =>   1
Atom   1H    basis set group =>   2
Atom   2H    basis set group =>   2


           ************************************************************
           *        Program running with 8 parallel MPI-processes     *
           *              working on a common directory               *
           ************************************************************
------------------------------------------------------------------------------
                           ORCA GTO INTEGRAL CALCULATION
------------------------------------------------------------------------------

                         BASIS SET STATISTICS AND STARTUP INFO

 # of primitive gaussian shells          ...   86
 # of primitive gaussian functions       ...  172
 # of contracted shells                  ...   34
 # of contracted basis functions         ...   96
 Highest angular momentum                ...    3
 Maximum contraction depth               ...   13
 Integral package used                   ... LIBINT
 Integral threshhold            Thresh   ...  2.500e-11
 Primitive cut-off              TCut     ...  2.500e-12


------------------------------ INTEGRAL EVALUATION ----------------------------


 * One electron integrals 
 Pre-screening matrix                    ... done
 Shell pair data                         ... done (   0.000 sec)



           ************************************************************
           *        Program running with 8 parallel MPI-processes     *
           *              working on a common directory               *
           ************************************************************
-------------------------------------------------------------------------------
                                 ORCA SCF
-------------------------------------------------------------------------------

------------
SCF SETTINGS
------------
Hamiltonian:
 Ab initio Hamiltonian  Method          .... Hartree-Fock(GTOs)


General Settings:
 Integral files         IntName         .... hydrogen_sulfide_MP2_aug-cc-pVTZ_OPT
 Hartree-Fock type      HFTyp           .... RHF
 Total Charge           Charge          ....    0
 Multiplicity           Mult            ....    1
 Number of Electrons    NEL             ....   18
 Basis Dimension        Dim             ....   96
 Nuclear Repulsion      ENuc            ....     12.8616148616 Eh

Convergence Acceleration:
 DIIS                   CNVDIIS         .... on
   Start iteration      DIISMaxIt       ....    12
   Startup error        DIISStart       ....  0.200000
   # of expansion vecs  DIISMaxEq       ....     5
   Bias factor          DIISBfac        ....   1.050
   Max. coefficient     DIISMaxC        ....  10.000
 Newton-Raphson         CNVNR           .... off
 SOSCF                  CNVSOSCF        .... on
   Start iteration      SOSCFMaxIt      ....   150
   Startup grad/error   SOSCFStart      ....  0.003300
 Level Shifting         CNVShift        .... on
   Level shift para.    LevelShift      ....    0.2500
   Turn off err/grad.   ShiftErr        ....    0.0010
 Zerner damping         CNVZerner       .... off
 Static damping         CNVDamp         .... on
   Fraction old density DampFac         ....    0.7000
   Max. Damping (<1)    DampMax         ....    0.9800
   Min. Damping (>=0)   DampMin         ....    0.0000
   Turn off err/grad.   DampErr         ....    0.1000
 Fernandez-Rico         CNVRico         .... off

SCF Procedure:
 Maximum # iterations   MaxIter         ....   125
 SCF integral mode      SCFMode         .... Direct
   Integral package                     .... LIBINT
 Reset frequency        DirectResetFreq ....    20
 Integral Threshold     Thresh          ....  2.500e-11 Eh
 Primitive CutOff       TCut            ....  2.500e-12 Eh

Convergence Tolerance:
 Convergence Check Mode ConvCheckMode   .... Total+1el-Energy
 Convergence forced     ConvForced      .... 1
 Energy Change          TolE            ....  1.000e-08 Eh
 1-El. energy change                    ....  1.000e-05 Eh
 Orbital Gradient       TolG            ....  1.000e-05
 Orbital Rotation angle TolX            ....  1.000e-05
 DIIS Error             TolErr          ....  5.000e-07


Diagonalization of the overlap matrix:
Smallest eigenvalue                        ... 1.624e-04
Time for diagonalization                   ...    0.002 sec
Threshold for overlap eigenvalues          ... 1.000e-08
Number of eigenvalues below threshold      ... 0
Time for construction of square roots      ...    0.114 sec
Total time needed                          ...    0.116 sec

-------------------
DFT GRID GENERATION
-------------------

General Integration Accuracy     IntAcc      ...  4.340
Radial Grid Type                 RadialGrid  ... Gauss-Chebyshev
Angular Grid (max. acc.)         AngularGrid ... Lebedev-110
Angular grid pruning method      GridPruning ... 3 (G Style)
Weight generation scheme         WeightScheme... Becke
Basis function cutoff            BFCut       ...    1.0000e-11
Integration weight cutoff        WCut        ...    1.0000e-14
Grids for H and He will be reduced by one unit

# of grid points (after initial pruning)     ...   3394 (   0.0 sec)
# of grid points (after weights+screening)   ...   3370 (   0.0 sec)
nearest neighbour list constructed           ...    0.0 sec
Grid point re-assignment to atoms done       ...    0.0 sec
Grid point division into batches done        ...    0.0 sec
Reduced shell lists constructed in    0.0 sec

Total number of grid points                  ...     3370
Total number of batches                      ...       54
Average number of points per batch           ...       62
Average number of grid points per atom       ...     1123
Average number of shells per batch           ...    28.75 (84.56%)
Average number of basis functions per batch  ...    81.25 (84.64%)
Average number of large shells per batch     ...    25.12 (87.39%)
Average number of large basis fcns per batch ...    72.38 (89.08%)
Maximum spatial batch extension              ...  19.89, 16.27, 29.83 au
Average spatial batch extension              ...   1.54,  1.23,  1.88 au

Time for grid setup =    0.112 sec

------------------------------
INITIAL GUESS: MODEL POTENTIAL
------------------------------
Loading Hartree-Fock densities                     ... done
Calculating cut-offs                               ... done
Setting up the integral package                    ... done
Initializing the effective Hamiltonian             ... done
Starting the Coulomb interaction                   ... done (   0.0 sec)
Reading the grid                                   ... done
Mapping shells                                     ... done
Starting the XC term evaluation                    ... done (   0.0 sec)
Transforming the Hamiltonian                       ... done (   0.0 sec)
Diagonalizing the Hamiltonian                      ... done (   0.0 sec)
Back transforming the eigenvectors                 ... done (   0.0 sec)
Now organizing SCF variables                       ... done
                      ------------------
                      INITIAL GUESS DONE (   0.2 sec)
                      ------------------
--------------
SCF ITERATIONS
--------------
ITER       Energy         Delta-E        Max-DP      RMS-DP      [F,P]     Damp
               ***  Starting incremental Fock matrix formation  ***
  0   -398.6807092496   0.000000000000 0.06126115  0.00100455  0.1317795 0.7000
  1   -398.6907843266  -0.010075076974 0.04443271  0.00076435  0.0948575 0.7000
                               ***Turning on DIIS***
  2   -398.6977234283  -0.006939101635 0.10553658  0.00184881  0.0661059 0.0000
  3   -398.6936849235   0.004038504762 0.02132478  0.00041297  0.0098329 0.0000
  4   -398.7024123182  -0.008727394687 0.00404299  0.00011529  0.0048345 0.0000
                      *** Initiating the SOSCF procedure ***
                           *** Shutting down DIIS ***
                      *** Re-Reading the Fockian *** 
                      *** Removing any level shift *** 
ITER      Energy       Delta-E        Grad      Rot      Max-DP    RMS-DP
  5   -398.71210443  -0.0096921112  0.001193  0.001193  0.000940  0.000039
               *** Restarting incremental Fock matrix formation ***
  6   -398.71370296  -0.0015985344  0.000371  0.000592  0.000517  0.000016
  7   -398.71370533  -0.0000023650  0.000157  0.000447  0.000355  0.000011
  8   -398.71370589  -0.0000005636  0.000013  0.000014  0.000062  0.000001
  9   -398.71370590  -0.0000000029  0.000004  0.000009  0.000015  0.000000
                  ***Gradient check signals convergence***
              ***Rediagonalizing the Fockian in SOSCF/NRSCF***

               *****************************************************
               *                     SUCCESS                       *
               *           SCF CONVERGED AFTER  10 CYCLES          *
               *****************************************************


----------------
TOTAL SCF ENERGY
----------------

Total Energy       :         -398.71370590 Eh          -10849.55152 eV

Components:
Nuclear Repulsion  :           12.86161486 Eh             349.98233 eV
Electronic Energy  :         -411.57532076 Eh          -11199.53385 eV
One Electron Energy:         -576.46619470 Eh          -15686.44264 eV
Two Electron Energy:          164.89087395 Eh            4486.90879 eV

Virial components:
Potential Energy   :         -797.36841734 Eh          -21697.49772 eV
Kinetic Energy     :          398.65471144 Eh           10847.94620 eV
Virial Ratio       :            2.00014798


---------------
SCF CONVERGENCE
---------------

  Last Energy change         ...   -1.9929e-10  Tolerance :   1.0000e-08
  Last MAX-Density change    ...    3.1456e-06  Tolerance :   1.0000e-07
  Last RMS-Density change    ...    7.6048e-08  Tolerance :   5.0000e-09
  Last Orbital Gradient      ...    8.7512e-07  Tolerance :   1.0000e-05
  Last Orbital Rotation      ...    1.2124e-06  Tolerance :   1.0000e-05

             **** THE GBW FILE WAS UPDATED (hydrogen_sulfide_MP2_aug-cc-pVTZ_OPT.gbw) ****
             **** DENSITY FILE WAS UPDATED (hydrogen_sulfide_MP2_aug-cc-pVTZ_OPT.scfp) ****
             **** ENERGY FILE WAS UPDATED (hydrogen_sulfide_MP2_aug-cc-pVTZ_OPT.en.tmp) ****
             **** THE GBW FILE WAS UPDATED (hydrogen_sulfide_MP2_aug-cc-pVTZ_OPT.gbw) ****
             **** DENSITY FILE WAS UPDATED (hydrogen_sulfide_MP2_aug-cc-pVTZ_OPT.scfp) ****
----------------
ORBITAL ENERGIES
----------------

  NO   OCC          E(Eh)            E(eV) 
   0   2.0000     -91.967989     -2502.5762 
   1   2.0000      -8.969768      -244.0798 
   2   2.0000      -6.651037      -180.9839 
   3   2.0000      -6.650268      -180.9630 
   4   2.0000      -6.649002      -180.9285 
   5   2.0000      -0.980076       -26.6692 
   6   2.0000      -0.588052       -16.0017 
   7   2.0000      -0.500630       -13.6228 
   8   2.0000      -0.385416       -10.4877 
   9   0.0000       0.028711         0.7813 
  10   0.0000       0.049371         1.3435 
  11   0.0000       0.090672         2.4673 
  12   0.0000       0.100292         2.7291 
  13   0.0000       0.108982         2.9655 
  14   0.0000       0.141082         3.8390 
  15   0.0000       0.165749         4.5103 
  16   0.0000       0.206325         5.6144 
  17   0.0000       0.219044         5.9605 
  18   0.0000       0.238378         6.4866 
  19   0.0000       0.241281         6.5656 
  20   0.0000       0.294783         8.0215 
  21   0.0000       0.332647         9.0518 
  22   0.0000       0.340056         9.2534 
  23   0.0000       0.364254         9.9119 
  24   0.0000       0.368292        10.0217 
  25   0.0000       0.369919        10.0660 
  26   0.0000       0.400743        10.9048 
  27   0.0000       0.406505        11.0616 
  28   0.0000       0.540201        14.6996 
  29   0.0000       0.551573        15.0091 
  30   0.0000       0.580734        15.8026 
  31   0.0000       0.609447        16.5839 
  32   0.0000       0.689573        18.7642 
  33   0.0000       0.693161        18.8619 
  34   0.0000       0.707248        19.2452 
  35   0.0000       0.785700        21.3800 
  36   0.0000       0.815720        22.1969 
  37   0.0000       0.828883        22.5551 
  38   0.0000       0.850331        23.1387 
  39   0.0000       0.874323        23.7915 
  40   0.0000       0.882704        24.0196 
  41   0.0000       0.894470        24.3398 
  42   0.0000       0.915752        24.9189 
  43   0.0000       0.951611        25.8947 
  44   0.0000       0.987897        26.8821 
  45   0.0000       0.998942        27.1826 
  46   0.0000       1.053555        28.6687 
  47   0.0000       1.074884        29.2491 
  48   0.0000       1.083553        29.4850 
  49   0.0000       1.106909        30.1205 
  50   0.0000       1.125572        30.6284 
  51   0.0000       1.160356        31.5749 
  52   0.0000       1.196714        32.5642 
  53   0.0000       1.271138        34.5894 
  54   0.0000       1.337525        36.3959 
  55   0.0000       1.579857        42.9901 
  56   0.0000       1.607967        43.7550 
  57   0.0000       1.610792        43.8319 
  58   0.0000       1.654847        45.0307 
  59   0.0000       1.699959        46.2582 
  60   0.0000       1.771718        48.2109 
  61   0.0000       1.809248        49.2322 
  62   0.0000       2.051067        55.8124 
  63   0.0000       2.058065        56.0028 
  64   0.0000       2.086776        56.7841 
  65   0.0000       2.196194        59.7615 
  66   0.0000       2.260634        61.5150 
  67   0.0000       2.352094        64.0037 
  68   0.0000       2.371344        64.5275 
  69   0.0000       2.418138        65.8009 
  70   0.0000       2.433170        66.2099 
  71   0.0000       2.548796        69.3563 
  72   0.0000       2.597663        70.6860 
  73   0.0000       2.625099        71.4326 
  74   0.0000       2.684742        73.0555 
  75   0.0000       2.843525        77.3763 
  76   0.0000       3.075838        83.6978 
  77   0.0000       3.443732        93.7087 
  78   0.0000       3.538281        96.2815 
  79   0.0000       3.875972       105.4706 
  80   0.0000       3.946220       107.3821 
  81   0.0000       3.963836       107.8615 
  82   0.0000       4.000919       108.8705 
  83   0.0000       4.220331       114.8411 
  84   0.0000       4.318156       117.5030 
  85   0.0000       4.340488       118.1107 
  86   0.0000       4.403119       119.8150 
  87   0.0000       4.439320       120.8000 
  88   0.0000       4.520686       123.0141 
  89   0.0000       4.555955       123.9738 
  90   0.0000       4.601924       125.2247 
  91   0.0000       4.712922       128.2451 
  92   0.0000       4.864460       132.3687 
  93   0.0000       4.958967       134.9403 
  94   0.0000       5.487748       149.3292 
  95   0.0000       7.657602       208.3739 

                    ********************************
                    * MULLIKEN POPULATION ANALYSIS *
                    ********************************

-----------------------
MULLIKEN ATOMIC CHARGES
-----------------------
   0 S :   -0.325220
   1 H :    0.162720
   2 H :    0.162500
Sum of atomic charges:    0.0000000

--------------------------------
MULLIKEN REDUCED ORBITAL CHARGES
--------------------------------
  0 S s       :     5.805070  s :     5.805070
      pz      :     3.932029  p :    10.388073
      px      :     3.184848
      py      :     3.271197
      dz2     :     0.020932  d :     0.122490
      dxz     :     0.000437
      dyz     :     0.000875
      dx2y2   :     0.089003
      dxy     :     0.011244
      f0      :     0.000509  f :     0.009587
      f+1     :     0.002547
      f-1     :     0.002177
      f+2     :     0.000002
      f-2     :     0.000012
      f+3     :     0.001755
      f-3     :     0.002585
  1 H s       :     0.776472  s :     0.776472
      pz      :     0.028695  p :     0.053515
      px      :     0.005683
      py      :     0.019136
      dz2     :     0.000115  d :     0.007293
      dxz     :     0.000195
      dyz     :     0.004182
      dx2y2   :     0.002143
      dxy     :     0.000657
  2 H s       :     0.776670  s :     0.776670
      pz      :     0.028684  p :     0.053535
      px      :     0.020189
      py      :     0.004661
      dz2     :     0.000115  d :     0.007295
      dxz     :     0.004309
      dyz     :     0.000070
      dx2y2   :     0.001468
      dxy     :     0.001332


                     *******************************
                     * LOEWDIN POPULATION ANALYSIS *
                     *******************************

----------------------
LOEWDIN ATOMIC CHARGES
----------------------
   0 S :    1.296192
   1 H :   -0.648396
   2 H :   -0.647796

-------------------------------
LOEWDIN REDUCED ORBITAL CHARGES
-------------------------------
  0 S s       :     5.036647  s :     5.036647
      pz      :     3.392098  p :     9.449289
      px      :     2.978081
      py      :     3.079110
      dz2     :     0.032838  d :     0.178374
      dxz     :     0.002091
      dyz     :     0.004183
      dx2y2   :     0.116412
      dxy     :     0.022850
      f0      :     0.000309  f :     0.039499
      f+1     :     0.006581
      f-1     :     0.005802
      f+2     :     0.000003
      f-2     :     0.000026
      f+3     :     0.013269
      f-3     :     0.013509
  1 H s       :     0.795388  s :     0.795388
      pz      :     0.179107  p :     0.538817
      px      :     0.114831
      py      :     0.244879
      dz2     :     0.025098  d :     0.314191
      dxz     :     0.003195
      dyz     :     0.118444
      dx2y2   :     0.083165
      dxy     :     0.084289
  2 H s       :     0.795279  s :     0.795279
      pz      :     0.178966  p :     0.538467
      px      :     0.232224
      py      :     0.127277
      dz2     :     0.025090  d :     0.314050
      dxz     :     0.117800
      dyz     :     0.003777
      dx2y2   :     0.058072
      dxy     :     0.109311


                      *****************************
                      * MAYER POPULATION ANALYSIS *
                      *****************************

  NA   - Mulliken gross atomic population
  ZA   - Total nuclear charge
  QA   - Mulliken gross atomic charge
  VA   - Mayer's total valence
  BVA  - Mayer's bonded valence
  FA   - Mayer's free valence

  ATOM       NA         ZA         QA         VA         BVA        FA
  0 S     16.3252    16.0000    -0.3252     2.0391     2.0391     0.0000
  1 H      0.8373     1.0000     0.1627     1.0309     1.0309     0.0000
  2 H      0.8375     1.0000     0.1625     1.0310     1.0310    -0.0000

  Mayer bond orders larger than 0.100000
B(  0-S ,  1-H ) :   1.0195 B(  0-S ,  2-H ) :   1.0196 

-------
TIMINGS
-------

Total SCF time: 0 days 0 hours 0 min 3 sec 

Total time                  ....       3.633 sec
Sum of individual times     ....       2.894 sec  ( 79.7%)

Fock matrix formation       ....       2.462 sec  ( 67.8%)
Diagonalization             ....       0.014 sec  (  0.4%)
Density matrix formation    ....       0.003 sec  (  0.1%)
Population analysis         ....       0.002 sec  (  0.1%)
Initial guess               ....       0.075 sec  (  2.1%)
Orbital Transformation      ....       0.000 sec  (  0.0%)
Orbital Orthonormalization  ....       0.000 sec  (  0.0%)
DIIS solution               ....       0.006 sec  (  0.2%)
SOSCF solution              ....       0.223 sec  (  6.1%)


           ************************************************************
           *        Program running with 8 parallel MPI-processes     *
           *              working on a common directory               *
           ************************************************************

------------------------------------------------------------------------------
                                ORCA  MP2 
------------------------------------------------------------------------------

Freezing NCore=10 chemical core electrons
MP2 will be done in the AO integral direct mode
The Q1-step will be done using symmetric double matrices
Dimension of the basis                    ...   96
Memory devoted for MP2                    ... 1000 MB   
Memory needed for all in one shot         ...    4 MB
Number of MOs that can be treated together...  292      
MP2 density construction                  ... relaxed
The MP2 gradient is requested => amplitudes will be stored on disk
Total number of MOs              ...    4
Number of MOs treated per batch  ...    1 
Number of batches necessary      ...    1 
OPERATORS   0/  0 PASS   0
-----------------------------------------------
 MP2 CORRELATION ENERGY   :     -0.195030747 Eh
-----------------------------------------------


---------------------
MP2 DENSITY FORMATION
---------------------

Completing the external part of the density      ... done
Storing the unrelaxed density                    ... done

Calculating G(D)                                 ... done
Completing the Lagrangian                        ... done
Solving the Z-vector equations                   ... 

------------------------------------------------------------------------------
                           ORCA CP-SCF CALCULATION
------------------------------------------------------------------------------

Input orbitals are from        ... hydrogen_sulfide_MP2_aug-cc-pVTZ_OPT.gbw
Input Perturbation             ... hydrogen_sulfide_MP2_aug-cc-pVTZ_OPT.pin.tmp
Wavefunction output            ... hydrogen_sulfide_MP2_aug-cc-pVTZ_OPT.pout.tmp
Perturbation mode              ... Real perturbation (singlet)
Solver                         ... POPLE
Max. number of iterations      ... 128
Convergence tolerance          ... 1.000e-08
Integral handling              ... Direct
Number of perturbations        ... 1
Number of operators            ... 1
Orbital ranges used for CP-SCF:
 Operator 0:  Orbitals   0...  8  to   9... 95
Variables per vector in CP-SCF ... 783
Number of vectors sought       ... 1
     CP-SCF ITERATION   0: 
     CP-SCF ITERATION   1:      0.000066140346
     CP-SCF ITERATION   2:      0.000002615507
     CP-SCF ITERATION   3:      0.000000144262
     CP-SCF ITERATION   4:      0.000000007149
                                                 ... done
Finalizing the relaxed density                   ... done
Transforming P to the AO basis                   ... done
Storing the relaxed density                      ... done

------------------------------------
ENERGY WEIGHTED DENSITY FINALIZATION
------------------------------------

Gathering the parts of the W-matrix              ...                                                      done
Forming the Z-density                            ... done
Transforming Z to the AO basis                   ... done
Calculating G(Z)                                 ... done
Finalizing the W-matrix                          ...                                                      done
Transforming W to the AO basis and storing       ... done

                *********************************************
                * UNRELAXED MP2 DENSITY POPULATION ANALYSIS *
                *********************************************

------------------------------------------------------------------------------
                           ORCA POPULATION ANALYSIS
------------------------------------------------------------------------------
Input electron density              ... hydrogen_sulfide_MP2_aug-cc-pVTZ_OPT.pmp2ur
BaseName (.gbw .S,...)              ... hydrogen_sulfide_MP2_aug-cc-pVTZ_OPT

                    ********************************
                    * MULLIKEN POPULATION ANALYSIS *
                    ********************************

-----------------------
MULLIKEN ATOMIC CHARGES
-----------------------
   0 S :   -0.326565
   1 H :    0.163391
   2 H :    0.163173
Sum of atomic charges:    0.0000000

--------------------------------
MULLIKEN REDUCED ORBITAL CHARGES
--------------------------------
  0 S s       :     5.792235  s :     5.792235
      pz      :     3.895450  p :    10.329140
      px      :     3.176095
      py      :     3.257594
      dz2     :     0.035556  d :     0.187273
      dxz     :     0.015822
      dyz     :     0.016290
      dx2y2   :     0.096950
      dxy     :     0.022656
      f0      :     0.001887  f :     0.017917
      f+1     :     0.003711
      f-1     :     0.003410
      f+2     :     0.001372
      f-2     :     0.001259
      f+3     :     0.002768
      f-3     :     0.003509
  1 H s       :     0.770705  s :     0.770705
      pz      :     0.031051  p :     0.057997
      px      :     0.007929
      py      :     0.019017
      dz2     :     0.000292  d :     0.007907
      dxz     :     0.000400
      dyz     :     0.004224
      dx2y2   :     0.002190
      dxy     :     0.000801
  2 H s       :     0.770901  s :     0.770901
      pz      :     0.031040  p :     0.058017
      px      :     0.020035
      py      :     0.006941
      dz2     :     0.000292  d :     0.007909
      dxz     :     0.004353
      dyz     :     0.000273
      dx2y2   :     0.001567
      dxy     :     0.001424


                     *******************************
                     * LOEWDIN POPULATION ANALYSIS *
                     *******************************

----------------------
LOEWDIN ATOMIC CHARGES
----------------------
   0 S :    1.282508
   1 H :   -0.641550
   2 H :   -0.640958

-------------------------------
LOEWDIN REDUCED ORBITAL CHARGES
-------------------------------
  0 S s       :     5.026736  s :     5.026736
      pz      :     3.366958  p :     9.398371
      px      :     2.967022
      py      :     3.064391
      dz2     :     0.048433  d :     0.242538
      dxz     :     0.015831
      dyz     :     0.018093
      dx2y2   :     0.127195
      dxy     :     0.032986
      f0      :     0.001781  f :     0.049847
      f+1     :     0.008125
      f-1     :     0.007374
      f+2     :     0.001490
      f-2     :     0.001244
      f+3     :     0.014830
      f-3     :     0.015004
  1 H s       :     0.788418  s :     0.788418
      pz      :     0.178915  p :     0.540715
      px      :     0.115749
      py      :     0.246051
      dz2     :     0.025633  d :     0.312417
      dxz     :     0.003740
      dyz     :     0.116457
      dx2y2   :     0.082895
      dxy     :     0.083692
  2 H s       :     0.788311  s :     0.788311
      pz      :     0.178777  p :     0.540370
      px      :     0.233585
      py      :     0.128009
      dz2     :     0.025624  d :     0.312277
      dxz     :     0.115782
      dyz     :     0.004354
      dx2y2   :     0.058581
      dxy     :     0.107937


                      *****************************
                      * MAYER POPULATION ANALYSIS *
                      *****************************

  NA   - Mulliken gross atomic population
  ZA   - Total nuclear charge
  QA   - Mulliken gross atomic charge
  VA   - Mayer's total valence
  BVA  - Mayer's bonded valence
  FA   - Mayer's free valence

  ATOM       NA         ZA         QA         VA         BVA        FA
  0 S     16.3266    16.0000    -0.3266     2.4208     1.9257     0.4951
  1 H      0.8366     1.0000     0.1634     1.0347     0.9736     0.0612
  2 H      0.8368     1.0000     0.1632     1.0349     0.9737     0.0612

  Mayer bond orders larger than 0.100000
B(  0-S ,  1-H ) :   0.9628 B(  0-S ,  2-H ) :   0.9629 


                *******************************************
                * RELAXED MP2 DENSITY POPULATION ANALYSIS *
                *******************************************

------------------------------------------------------------------------------
                           ORCA POPULATION ANALYSIS
------------------------------------------------------------------------------
Input electron density              ... hydrogen_sulfide_MP2_aug-cc-pVTZ_OPT.pmp2re
BaseName (.gbw .S,...)              ... hydrogen_sulfide_MP2_aug-cc-pVTZ_OPT

                    ********************************
                    * MULLIKEN POPULATION ANALYSIS *
                    ********************************

-----------------------
MULLIKEN ATOMIC CHARGES
-----------------------
   0 S :   -0.352122
   1 H :    0.176160
   2 H :    0.175963
Sum of atomic charges:    0.0000000

--------------------------------
MULLIKEN REDUCED ORBITAL CHARGES
--------------------------------
  0 S s       :     5.811253  s :     5.811253
      pz      :     3.882549  p :    10.354832
      px      :     3.202072
      py      :     3.270211
      dz2     :     0.031244  d :     0.169020
      dxz     :     0.016242
      dyz     :     0.017130
      dx2y2   :     0.083098
      dxy     :     0.021305
      f0      :     0.002018  f :     0.017018
      f+1     :     0.003643
      f-1     :     0.003365
      f+2     :     0.001372
      f-2     :     0.001259
      f+3     :     0.002412
      f-3     :     0.002950
  1 H s       :     0.749859  s :     0.749859
      pz      :     0.037010  p :     0.066512
      px      :     0.010974
      py      :     0.018527
      dz2     :     0.000261  d :     0.007469
      dxz     :     0.000444
      dyz     :     0.003975
      dx2y2   :     0.002081
      dxy     :     0.000709
  2 H s       :     0.750037  s :     0.750037
      pz      :     0.037000  p :     0.066528
      px      :     0.019623
      py      :     0.009905
      dz2     :     0.000261  d :     0.007472
      dxz     :     0.004184
      dyz     :     0.000237
      dx2y2   :     0.001340
      dxy     :     0.001450


                     *******************************
                     * LOEWDIN POPULATION ANALYSIS *
                     *******************************

----------------------
LOEWDIN ATOMIC CHARGES
----------------------
   0 S :    1.287276
   1 H :   -0.643936
   2 H :   -0.643340

-------------------------------
LOEWDIN REDUCED ORBITAL CHARGES
-------------------------------
  0 S s       :     5.030501  s :     5.030501
      pz      :     3.360140  p :     9.416351
      px      :     2.983442
      py      :     3.072769
      dz2     :     0.044441  d :     0.217242
      dxz     :     0.015034
      dyz     :     0.016500
      dx2y2   :     0.112551
      dxy     :     0.028715
      f0      :     0.001686  f :     0.048630
      f+1     :     0.008031
      f-1     :     0.007339
      f+2     :     0.001489
      f-2     :     0.001238
      f+3     :     0.014428
      f-3     :     0.014419
  1 H s       :     0.777948  s :     0.777948
      pz      :     0.184978  p :     0.553278
      px      :     0.120479
      py      :     0.247822
      dz2     :     0.025806  d :     0.312710
      dxz     :     0.004012
      dyz     :     0.114775
      dx2y2   :     0.083060
      dxy     :     0.085057
  2 H s       :     0.777836  s :     0.777836
      pz      :     0.184841  p :     0.552933
      px      :     0.234090
      py      :     0.134002
      dz2     :     0.025798  d :     0.312571
      dxz     :     0.114751
      dyz     :     0.003976
      dx2y2   :     0.059070
      dxy     :     0.108977


                      *****************************
                      * MAYER POPULATION ANALYSIS *
                      *****************************

  NA   - Mulliken gross atomic population
  ZA   - Total nuclear charge
  QA   - Mulliken gross atomic charge
  VA   - Mayer's total valence
  BVA  - Mayer's bonded valence
  FA   - Mayer's free valence

  ATOM       NA         ZA         QA         VA         BVA        FA
  0 S     16.3521    16.0000    -0.3521     2.4170     1.9293     0.4876
  1 H      0.8238     1.0000     0.1762     1.0424     0.9818     0.0606
  2 H      0.8240     1.0000     0.1760     1.0426     0.9819     0.0607

  Mayer bond orders larger than 0.100000
B(  0-S ,  1-H ) :   0.9646 B(  0-S ,  2-H ) :   0.9647 


----------------------------------
MP2 DERIVATIVE INTEGRAL GENERATION
----------------------------------


Input Wavefunction Amplitudes       ... hydrogen_sulfide_MP2_aug-cc-pVTZ_OPT.mp2tsaa.tmp
Input Correlated Electron Density   ... hydrogen_sulfide_MP2_aug-cc-pVTZ_OPT.pmp2re
Input Energy Weighted Density       ... hydrogen_sulfide_MP2_aug-cc-pVTZ_OPT.wmp2.tmp
Input SCF Electron Density          ... hydrogen_sulfide_MP2_aug-cc-pVTZ_OPT.scfp

One-Electron Terms    ...
                        ... One-Electron Terms done
Prescreening matrices              ... done

Batch handling in the gradient evaluation:
Memory available                      ... 1000.0 MB
Memory per occupied orbital in Q2     ...    0.3 MB
Memory per occupied orbital in Q3     ...    0.0 MB
Total memory requirement per |i>      ...    0.3 MB
Max. Number of orbitals possible      ...   3153
Number of orbitals treated per batch  ...      4
Number of batches to be done          ...      1
Batch   0: i=    5 ...     8

---------------------------------------
MP2 TOTAL ENERGY:     -398.908736643 Eh
---------------------------------------

-----------------------------------
NORM OF THE MP2 GRADIENT:  0.008820
-----------------------------------

-------------------------   --------------------
FINAL SINGLE POINT ENERGY      -398.908736642747
-------------------------   --------------------

------------------------------------------------------------------------------
                         ORCA GEOMETRY RELAXATION STEP
------------------------------------------------------------------------------

Reading the OPT-File                    .... done
Getting information on internals        .... done
Copying old internal coords+grads       .... done
Making the new internal coordinates     .... (new redundants).... done
Validating the new internal coordinates .... (new redundants).... done
Calculating the B-matrix                .... done
Calculating the G,G- and P matrices     .... done
Transforming gradient to internals      .... done
Projecting the internal gradient        .... done
Number of atoms                         ....   3
Number of internal coordinates          ....   3
Current Energy                          ....  -398.908736643 Eh
Current gradient norm                   ....     0.008819510 Eh/bohr
Maximum allowed component of the step   ....  0.300
Current trust radius                    ....  0.300
Evaluating the initial hessian          ....  (Almloef) done
Projecting the Hessian                  .... done
Forming the augmented Hessian           .... done
Diagonalizing the augmented Hessian     .... done
Last element of RFO vector              ....  0.999842707
Lowest eigenvalues of augmented Hessian:
 -0.000119206  0.338184648  0.380190202
Length of the computed step             ....  0.017738685
The final length of the internal step   ....  0.017738685
Converting the step to cartesian space:
 Initial RMS(Int)=    0.0102414344
Transforming coordinates:
 Iter   0:  RMS(Cart)=    0.0058213857 RMS(Int)=    0.0102402343
 Iter   1:  RMS(Cart)=    0.0000076102 RMS(Int)=    0.0000104217
 Iter   2:  RMS(Cart)=    0.0000000327 RMS(Int)=    0.0000000547
done
Storing new coordinates                 .... done

                                .--------------------.
          ----------------------|Geometry convergence|-------------------------
          Item                value                   Tolerance       Converged
          ---------------------------------------------------------------------
          RMS gradient        0.0038807729            0.0001000000      NO
          MAX gradient        0.0047695074            0.0003000000      NO
          RMS step            0.0102414344            0.0020000000      NO
          MAX step            0.0125428781            0.0040000000      NO
          ........................................................
          Max(Bonds)      0.0066      Max(Angles)    0.20
          Max(Dihed)        0.00      Max(Improp)    0.00
          ---------------------------------------------------------------------

The optimization has not yet converged - more geometry cycles are needed


    ---------------------------------------------------------------------------
                         Redundant Internal Coordinates
                            (Angstroem and degrees)

        Definition                    Value    dE/dq     Step     New-Value
    ----------------------------------------------------------------------------
     1. B(H   1,S   0)                1.3449  0.004585 -0.0064    1.3385   
     2. B(H   2,S   0)                1.3453  0.004770 -0.0066    1.3386   
     3. A(H   1,S   0,H   2)           92.51  0.001188   -0.20     92.31   
    ----------------------------------------------------------------------------

         *************************************************************
         *                GEOMETRY OPTIMIZATION CYCLE   2            *
         *************************************************************
---------------------------------
CARTESIAN COORDINATES (ANGSTROEM)
---------------------------------
  S     -0.054716   -0.077327    0.000000
  H     -0.307533    1.237114    0.000000
  H      1.268918    0.122432    0.000000

----------------------------
CARTESIAN COORDINATES (A.U.)
----------------------------
  NO LB      ZA    FRAG     MASS         X           Y           Z
   0 S    16.0000    0    32.060   -0.103397   -0.146126    0.000000
   1 H     1.0000    0     1.008   -0.581152    2.337807    0.000000
   2 H     1.0000    0     1.008    2.397908    0.231364    0.000000

--------------------------------
INTERNAL COORDINATES (ANGSTROEM)
--------------------------------
 S      0   0   0     0.000000000000     0.00000000     0.00000000
 H      1   0   0     1.338533001163     0.00000000     0.00000000
 H      1   2   0     1.338622402531    92.30506312     0.00000000

---------------------------
INTERNAL COORDINATES (A.U.)
---------------------------
 S      0   0   0     0.000000000000     0.00000000     0.00000000
 H      1   0   0     2.529460793414     0.00000000     0.00000000
 H      1   2   0     2.529629737515    92.30506312     0.00000000



           ************************************************************
           *        Program running with 8 parallel MPI-processes     *
           *              working on a common directory               *
           ************************************************************


           ************************************************************
           *        Program running with 8 parallel MPI-processes     *
           *              working on a common directory               *
           ************************************************************

Diagonalization of the overlap matrix:
Smallest eigenvalue                        ... 1.574e-04
Time for diagonalization                   ...    0.002 sec
Threshold for overlap eigenvalues          ... 1.000e-08
Number of eigenvalues below threshold      ... 0
Time for construction of square roots      ...    0.002 sec
Total time needed                          ...    0.004 sec

--------------
SCF ITERATIONS
--------------
ITER       Energy         Delta-E        Max-DP      RMS-DP      [F,P]     Damp
               ***  Starting incremental Fock matrix formation  ***
                      *** Initiating the SOSCF procedure ***
                      *** Re-Reading the Fockian *** 
                      *** Removing any level shift *** 
ITER      Energy       Delta-E        Grad      Rot      Max-DP    RMS-DP
  0   -398.71383065 -398.7138306530  0.001089  0.001089  0.001552  0.000063
               *** Restarting incremental Fock matrix formation ***
  1   -398.71384301  -0.0000123568  0.000263  0.000324  0.000402  0.000016
  2   -398.71384419  -0.0000011790  0.000086  0.000200  0.000262  0.000007
  3   -398.71384434  -0.0000001468  0.000009  0.000020  0.000045  0.000001
  4   -398.71384434  -0.0000000029  0.000003  0.000007  0.000017  0.000000
                  ***Gradient check signals convergence***
              ***Rediagonalizing the Fockian in SOSCF/NRSCF***

               *****************************************************
               *                     SUCCESS                       *
               *           SCF CONVERGED AFTER   5 CYCLES          *
               *****************************************************

Total Energy       :         -398.71384434 Eh          -10849.55529 eV
  Last Energy change         ...   -2.0850e-10  Tolerance :   1.0000e-08
  Last MAX-Density change    ...    2.1313e-06  Tolerance :   1.0000e-07
             **** THE GBW FILE WAS UPDATED (hydrogen_sulfide_MP2_aug-cc-pVTZ_OPT.gbw) ****
             **** DENSITY FILE WAS UPDATED (hydrogen_sulfide_MP2_aug-cc-pVTZ_OPT.scfp) ****
             **** ENERGY FILE WAS UPDATED (hydrogen_sulfide_MP2_aug-cc-pVTZ_OPT.en.tmp) ****
             **** THE GBW FILE WAS UPDATED (hydrogen_sulfide_MP2_aug-cc-pVTZ_OPT.gbw) ****
             **** DENSITY FILE WAS UPDATED (hydrogen_sulfide_MP2_aug-cc-pVTZ_OPT.scfp) ****
Total SCF time: 0 days 0 hours 0 min 2 sec 


           ************************************************************
           *        Program running with 8 parallel MPI-processes     *
           *              working on a common directory               *
           ************************************************************

------------------------------------------------------------------------------
                                ORCA  MP2 
------------------------------------------------------------------------------

Freezing NCore=10 chemical core electrons
MP2 will be done in the AO integral direct mode
The Q1-step will be done using symmetric double matrices
Dimension of the basis                    ...   96
Memory devoted for MP2                    ... 1000 MB   
Memory needed for all in one shot         ...    4 MB
Number of MOs that can be treated together...  292      
MP2 density construction                  ... relaxed
The MP2 gradient is requested => amplitudes will be stored on disk
Total number of MOs              ...    4
Number of MOs treated per batch  ...    1 
Number of batches necessary      ...    1 
OPERATORS   0/  0 PASS   0
-----------------------------------------------
 MP2 CORRELATION ENERGY   :     -0.194967906 Eh
-----------------------------------------------


---------------------
MP2 DENSITY FORMATION
---------------------

Completing the external part of the density      ... done
Storing the unrelaxed density                    ... done

Calculating G(D)                                 ... done
Completing the Lagrangian                        ... done
Solving the Z-vector equations                   ... 

------------------------------------------------------------------------------
                           ORCA CP-SCF CALCULATION
------------------------------------------------------------------------------

Input orbitals are from        ... hydrogen_sulfide_MP2_aug-cc-pVTZ_OPT.gbw
Input Perturbation             ... hydrogen_sulfide_MP2_aug-cc-pVTZ_OPT.pin.tmp
Wavefunction output            ... hydrogen_sulfide_MP2_aug-cc-pVTZ_OPT.pout.tmp
Perturbation mode              ... Real perturbation (singlet)
Solver                         ... POPLE
Max. number of iterations      ... 128
Convergence tolerance          ... 1.000e-08
Integral handling              ... Direct
Number of perturbations        ... 1
Number of operators            ... 1
Orbital ranges used for CP-SCF:
 Operator 0:  Orbitals   0...  8  to   9... 95
Variables per vector in CP-SCF ... 783
Number of vectors sought       ... 1
     CP-SCF ITERATION   0: 
     CP-SCF ITERATION   1:      0.000064526255
     CP-SCF ITERATION   2:      0.000002546251
     CP-SCF ITERATION   3:      0.000000141112
     CP-SCF ITERATION   4:      0.000000007035
                                                 ... done
Finalizing the relaxed density                   ... done
Transforming P to the AO basis                   ... done
Storing the relaxed density                      ... done

------------------------------------
ENERGY WEIGHTED DENSITY FINALIZATION
------------------------------------

Gathering the parts of the W-matrix              ...                                                      done
Forming the Z-density                            ... done
Transforming Z to the AO basis                   ... done
Calculating G(Z)                                 ... done
Finalizing the W-matrix                          ...                                                      done
Transforming W to the AO basis and storing       ... done

----------------------------------
MP2 DERIVATIVE INTEGRAL GENERATION
----------------------------------


Input Wavefunction Amplitudes       ... hydrogen_sulfide_MP2_aug-cc-pVTZ_OPT.mp2tsaa.tmp
Input Correlated Electron Density   ... hydrogen_sulfide_MP2_aug-cc-pVTZ_OPT.pmp2re
Input Energy Weighted Density       ... hydrogen_sulfide_MP2_aug-cc-pVTZ_OPT.wmp2.tmp
Input SCF Electron Density          ... hydrogen_sulfide_MP2_aug-cc-pVTZ_OPT.scfp

One-Electron Terms    ...
                        ... One-Electron Terms done
Prescreening matrices              ... done

Batch handling in the gradient evaluation:
Memory available                      ... 1000.0 MB
Memory per occupied orbital in Q2     ...    0.3 MB
Memory per occupied orbital in Q3     ...    0.0 MB
Total memory requirement per |i>      ...    0.3 MB
Max. Number of orbitals possible      ...   3153
Number of orbitals treated per batch  ...      4
Number of batches to be done          ...      1
Batch   0: i=    5 ...     8

---------------------------------------
MP2 TOTAL ENERGY:     -398.908812244 Eh
---------------------------------------

-----------------------------------
NORM OF THE MP2 GRADIENT:  0.002332
-----------------------------------

-------------------------   --------------------
FINAL SINGLE POINT ENERGY      -398.908812244366
-------------------------   --------------------

------------------------------------------------------------------------------
                         ORCA GEOMETRY RELAXATION STEP
------------------------------------------------------------------------------

Reading the OPT-File                    .... done
Getting information on internals        .... done
Copying old internal coords+grads       .... done
Making the new internal coordinates     .... (new redundants).... done
Validating the new internal coordinates .... (new redundants).... done
Calculating the B-matrix                .... done
Calculating the G,G- and P matrices     .... done
Transforming gradient to internals      .... done
Projecting the internal gradient        .... done
Number of atoms                         ....   3
Number of internal coordinates          ....   3
Current Energy                          ....  -398.908812244 Eh
Current gradient norm                   ....     0.002332009 Eh/bohr
Maximum allowed component of the step   ....  0.300
Current trust radius                    ....  0.300
Updating the Hessian (BFGS)             .... done
Forming the augmented Hessian           .... done
Diagonalizing the augmented Hessian     .... done
Last element of RFO vector              ....  0.999979470
Lowest eigenvalues of augmented Hessian:
 -0.000011423  0.277563092  0.340602264
Length of the computed step             ....  0.006407966
The final length of the internal step   ....  0.006407966
Converting the step to cartesian space:
 Initial RMS(Int)=    0.0036996409
Transforming coordinates:
 Iter   0:  RMS(Cart)=    0.0021180645 RMS(Int)=    0.0036994721
 Iter   1:  RMS(Cart)=    0.0000010356 RMS(Int)=    0.0000014296
 Iter   2:  RMS(Cart)=    0.0000000016 RMS(Int)=    0.0000000027
done
Storing new coordinates                 .... done

                                .--------------------.
          ----------------------|Geometry convergence|-------------------------
          Item                value                   Tolerance       Converged
          ---------------------------------------------------------------------
          Energy change      -0.0000756016            0.0000050000      NO
          RMS gradient        0.0010295074            0.0001000000      NO
          MAX gradient        0.0012627623            0.0003000000      NO
          RMS step            0.0036996409            0.0020000000      NO
          MAX step            0.0045200872            0.0040000000      NO
          ........................................................
          Max(Bonds)      0.0024      Max(Angles)    0.08
          Max(Dihed)        0.00      Max(Improp)    0.00
          ---------------------------------------------------------------------

The optimization has not yet converged - more geometry cycles are needed


    ---------------------------------------------------------------------------
                         Redundant Internal Coordinates
                            (Angstroem and degrees)

        Definition                    Value    dE/dq     Step     New-Value
    ----------------------------------------------------------------------------
     1. B(H   1,S   0)                1.3385  0.001215 -0.0023    1.3362   
     2. B(H   2,S   0)                1.3386  0.001263 -0.0024    1.3362   
     3. A(H   1,S   0,H   2)           92.31  0.000331   -0.08     92.23   
    ----------------------------------------------------------------------------

Time needed for optimization step       :     1.06 sec

         *************************************************************
         *                GEOMETRY OPTIMIZATION CYCLE   3            *
         *************************************************************
---------------------------------
CARTESIAN COORDINATES (ANGSTROEM)
---------------------------------
  S     -0.054310   -0.076811    0.000000
  H     -0.305842    1.235537    0.000000
  H      1.266822    0.123494    0.000000

----------------------------
CARTESIAN COORDINATES (A.U.)
----------------------------
  NO LB      ZA    FRAG     MASS         X           Y           Z
   0 S    16.0000    0    32.060   -0.102631   -0.145152    0.000000
   1 H     1.0000    0     1.008   -0.577957    2.334826    0.000000
   2 H     1.0000    0     1.008    2.393946    0.233370    0.000000

--------------------------------
INTERNAL COORDINATES (ANGSTROEM)
--------------------------------
 S      0   0   0     0.000000000000     0.00000000     0.00000000
 H      1   0   0     1.336235188296     0.00000000     0.00000000
 H      1   2   0     1.336230475409    92.22871088     0.00000000

---------------------------
INTERNAL COORDINATES (A.U.)
---------------------------
 S      0   0   0     0.000000000000     0.00000000     0.00000000
 H      1   0   0     2.525118556388     0.00000000     0.00000000
 H      1   2   0     2.525109650323    92.22871088     0.00000000



           ************************************************************
           *        Program running with 8 parallel MPI-processes     *
           *              working on a common directory               *
           ************************************************************


           ************************************************************
           *        Program running with 8 parallel MPI-processes     *
           *              working on a common directory               *
           ************************************************************

Diagonalization of the overlap matrix:
Smallest eigenvalue                        ... 1.556e-04
Time for diagonalization                   ...    0.002 sec
Threshold for overlap eigenvalues          ... 1.000e-08
Number of eigenvalues below threshold      ... 0
Time for construction of square roots      ...    0.001 sec
Total time needed                          ...    0.003 sec

--------------
SCF ITERATIONS
--------------
ITER       Energy         Delta-E        Max-DP      RMS-DP      [F,P]     Damp
               ***  Starting incremental Fock matrix formation  ***
                      *** Initiating the SOSCF procedure ***
                      *** Re-Reading the Fockian *** 
                      *** Removing any level shift *** 
ITER      Energy       Delta-E        Grad      Rot      Max-DP    RMS-DP
  0   -398.71386966 -398.7138696629  0.000394  0.000394  0.000578  0.000024
               *** Restarting incremental Fock matrix formation ***
  1   -398.71387130  -0.0000016325  0.000095  0.000117  0.000145  0.000006
  2   -398.71387145  -0.0000001540  0.000031  0.000072  0.000094  0.000003
  3   -398.71387147  -0.0000000189  0.000003  0.000007  0.000016  0.000000
                  ***Gradient check signals convergence***
              ***Rediagonalizing the Fockian in SOSCF/NRSCF***

               *****************************************************
               *                     SUCCESS                       *
               *           SCF CONVERGED AFTER   4 CYCLES          *
               *****************************************************

Total Energy       :         -398.71387147 Eh          -10849.55602 eV
  Last Energy change         ...   -4.8510e-10  Tolerance :   1.0000e-08
  Last MAX-Density change    ...    6.3720e-06  Tolerance :   1.0000e-07
             **** THE GBW FILE WAS UPDATED (hydrogen_sulfide_MP2_aug-cc-pVTZ_OPT.gbw) ****
             **** DENSITY FILE WAS UPDATED (hydrogen_sulfide_MP2_aug-cc-pVTZ_OPT.scfp) ****
             **** ENERGY FILE WAS UPDATED (hydrogen_sulfide_MP2_aug-cc-pVTZ_OPT.en.tmp) ****
             **** THE GBW FILE WAS UPDATED (hydrogen_sulfide_MP2_aug-cc-pVTZ_OPT.gbw) ****
             **** DENSITY FILE WAS UPDATED (hydrogen_sulfide_MP2_aug-cc-pVTZ_OPT.scfp) ****
Total SCF time: 0 days 0 hours 0 min 2 sec 


           ************************************************************
           *        Program running with 8 parallel MPI-processes     *
           *              working on a common directory               *
           ************************************************************

------------------------------------------------------------------------------
                                ORCA  MP2 
------------------------------------------------------------------------------

Freezing NCore=10 chemical core electrons
MP2 will be done in the AO integral direct mode
The Q1-step will be done using symmetric double matrices
Dimension of the basis                    ...   96
Memory devoted for MP2                    ... 1000 MB   
Memory needed for all in one shot         ...    4 MB
Number of MOs that can be treated together...  292      
MP2 density construction                  ... relaxed
The MP2 gradient is requested => amplitudes will be stored on disk
Total number of MOs              ...    4
Number of MOs treated per batch  ...    1 
Number of batches necessary      ...    1 
OPERATORS   0/  0 PASS   0
-----------------------------------------------
 MP2 CORRELATION ENERGY   :     -0.194946359 Eh
-----------------------------------------------


---------------------
MP2 DENSITY FORMATION
---------------------

Completing the external part of the density      ... done
Storing the unrelaxed density                    ... done

Calculating G(D)                                 ... done
Completing the Lagrangian                        ... done
Solving the Z-vector equations                   ... 

------------------------------------------------------------------------------
                           ORCA CP-SCF CALCULATION
------------------------------------------------------------------------------

Input orbitals are from        ... hydrogen_sulfide_MP2_aug-cc-pVTZ_OPT.gbw
Input Perturbation             ... hydrogen_sulfide_MP2_aug-cc-pVTZ_OPT.pin.tmp
Wavefunction output            ... hydrogen_sulfide_MP2_aug-cc-pVTZ_OPT.pout.tmp
Perturbation mode              ... Real perturbation (singlet)
Solver                         ... POPLE
Max. number of iterations      ... 128
Convergence tolerance          ... 1.000e-08
Integral handling              ... Direct
Number of perturbations        ... 1
Number of operators            ... 1
Orbital ranges used for CP-SCF:
 Operator 0:  Orbitals   0...  8  to   9... 95
Variables per vector in CP-SCF ... 783
Number of vectors sought       ... 1
     CP-SCF ITERATION   0: 
     CP-SCF ITERATION   1:      0.000063956662
     CP-SCF ITERATION   2:      0.000002521731
     CP-SCF ITERATION   3:      0.000000139992
     CP-SCF ITERATION   4:      0.000000006993
                                                 ... done
Finalizing the relaxed density                   ... done
Transforming P to the AO basis                   ... done
Storing the relaxed density                      ... done

------------------------------------
ENERGY WEIGHTED DENSITY FINALIZATION
------------------------------------

Gathering the parts of the W-matrix              ...                                                      done
Forming the Z-density                            ... done
Transforming Z to the AO basis                   ... done
Calculating G(Z)                                 ... done
Finalizing the W-matrix                          ...                                                      done
Transforming W to the AO basis and storing       ... done

----------------------------------
MP2 DERIVATIVE INTEGRAL GENERATION
----------------------------------


Input Wavefunction Amplitudes       ... hydrogen_sulfide_MP2_aug-cc-pVTZ_OPT.mp2tsaa.tmp
Input Correlated Electron Density   ... hydrogen_sulfide_MP2_aug-cc-pVTZ_OPT.pmp2re
Input Energy Weighted Density       ... hydrogen_sulfide_MP2_aug-cc-pVTZ_OPT.wmp2.tmp
Input SCF Electron Density          ... hydrogen_sulfide_MP2_aug-cc-pVTZ_OPT.scfp

One-Electron Terms    ...
                        ... One-Electron Terms done
Prescreening matrices              ... done

Batch handling in the gradient evaluation:
Memory available                      ... 1000.0 MB
Memory per occupied orbital in Q2     ...    0.3 MB
Memory per occupied orbital in Q3     ...    0.0 MB
Total memory requirement per |i>      ...    0.3 MB
Max. Number of orbitals possible      ...   3153
Number of orbitals treated per batch  ...      4
Number of batches to be done          ...      1
Batch   0: i=    5 ...     8

---------------------------------------
MP2 TOTAL ENERGY:     -398.908817828 Eh
---------------------------------------

-----------------------------------
NORM OF THE MP2 GRADIENT:  0.000063
-----------------------------------

-------------------------   --------------------
FINAL SINGLE POINT ENERGY      -398.908817827621
-------------------------   --------------------

------------------------------------------------------------------------------
                         ORCA GEOMETRY RELAXATION STEP
------------------------------------------------------------------------------

Reading the OPT-File                    .... done
Getting information on internals        .... done
Copying old internal coords+grads       .... done
Making the new internal coordinates     .... (new redundants).... done
Validating the new internal coordinates .... (new redundants).... done
Calculating the B-matrix                .... done
Calculating the G,G- and P matrices     .... done
Transforming gradient to internals      .... done
Projecting the internal gradient        .... done
Number of atoms                         ....   3
Number of internal coordinates          ....   3
Current Energy                          ....  -398.908817828 Eh
Current gradient norm                   ....     0.000063086 Eh/bohr
Maximum allowed component of the step   ....  0.300
Current trust radius                    ....  0.300
Updating the Hessian (BFGS)             .... done
Forming the augmented Hessian           .... done
Diagonalizing the augmented Hessian     .... done
Last element of RFO vector              ....  0.999999989
Lowest eigenvalues of augmented Hessian:
 -0.000000006  0.283079147  0.341480433
Length of the computed step             ....  0.000146641
The final length of the internal step   ....  0.000146641
Converting the step to cartesian space:
 Initial RMS(Int)=    0.0000846633
Transforming coordinates:
 Iter   0:  RMS(Cart)=    0.0000370536 RMS(Int)=    0.0000846633
 Iter   1:  RMS(Cart)=    0.0000000003 RMS(Int)=    0.0000000004
done
Storing new coordinates                 .... done

                                .--------------------.
          ----------------------|Geometry convergence|-------------------------
          Item                value                   Tolerance       Converged
          ---------------------------------------------------------------------
          Energy change      -0.0000055833            0.0000050000      NO
          RMS gradient        0.0000250401            0.0001000000      YES
          MAX gradient        0.0000314277            0.0003000000      YES
          RMS step            0.0000846633            0.0020000000      YES
          MAX step            0.0001069532            0.0040000000      YES
          ........................................................
          Max(Bonds)      0.0001      Max(Angles)    0.00
          Max(Dihed)        0.00      Max(Improp)    0.00
          ---------------------------------------------------------------------

       Everything but the energy has converged. However, the energy
       appears to be close enough to convergence to make sure that the
       final evaluation at the new geometry represents the equilibrium energy.
       Convergence will therefore be signaled now


                    ***********************HURRAY********************
                    ***        THE OPTIMIZATION HAS CONVERGED     ***
                    *************************************************


    ---------------------------------------------------------------------------
                         Redundant Internal Coordinates

                          --- Optimized Parameters ---  
                            (Angstroem and degrees)

        Definition                    OldVal   dE/dq     Step     FinalVal
    ----------------------------------------------------------------------------
     1. B(H   1,S   0)                1.3362 -0.000029  0.0001    1.3363   
     2. B(H   2,S   0)                1.3362 -0.000031  0.0001    1.3363   
     3. A(H   1,S   0,H   2)           92.23  0.000008   -0.00     92.23   
    ----------------------------------------------------------------------------
                 *******************************************************
                 *** FINAL ENERGY EVALUATION AT THE STATIONARY POINT ***
                 ***               (AFTER    3 CYCLES)               ***
                 *******************************************************
---------------------------------
CARTESIAN COORDINATES (ANGSTROEM)
---------------------------------
  S     -0.054329   -0.076835    0.000000
  H     -0.305859    1.235567    0.000000
  H      1.266858    0.123488    0.000000

----------------------------
CARTESIAN COORDINATES (A.U.)
----------------------------
  NO LB      ZA    FRAG     MASS         X           Y           Z
   0 S    16.0000    0    32.060   -0.102666   -0.145196    0.000000
   1 H     1.0000    0     1.008   -0.577990    2.334883    0.000000
   2 H     1.0000    0     1.008    2.394015    0.233358    0.000000

--------------------------------
INTERNAL COORDINATES (ANGSTROEM)
--------------------------------
 S      0   0   0     0.000000000000     0.00000000     0.00000000
 H      1   0   0     1.336287699908     0.00000000     0.00000000
 H      1   2   0     1.336287072625    92.22786584     0.00000000

---------------------------
INTERNAL COORDINATES (A.U.)
---------------------------
 S      0   0   0     0.000000000000     0.00000000     0.00000000
 H      1   0   0     2.525217788954     0.00000000     0.00000000
 H      1   2   0     2.525216603561    92.22786584     0.00000000

---------------------
BASIS SET INFORMATION
---------------------
There are 2 groups of distinct atoms

 Group   1 Type S   : 42s17p3d2f contracted to 6s5p3d2f pattern {131313111/77111/111/11}
 Group   2 Type H   : 6s3p2d contracted to 4s3p2d pattern {3111/111/11}

Atom   0S    basis set group =>   1
Atom   1H    basis set group =>   2
Atom   2H    basis set group =>   2


           ************************************************************
           *        Program running with 8 parallel MPI-processes     *
           *              working on a common directory               *
           ************************************************************
------------------------------------------------------------------------------
                           ORCA GTO INTEGRAL CALCULATION
------------------------------------------------------------------------------

                         BASIS SET STATISTICS AND STARTUP INFO

 # of primitive gaussian shells          ...   86
 # of primitive gaussian functions       ...  172
 # of contracted shells                  ...   34
 # of contracted basis functions         ...   96
 Highest angular momentum                ...    3
 Maximum contraction depth               ...   13
 Integral package used                   ... LIBINT
 Integral threshhold            Thresh   ...  2.500e-11
 Primitive cut-off              TCut     ...  2.500e-12


------------------------------ INTEGRAL EVALUATION ----------------------------


 * One electron integrals 
 Pre-screening matrix                    ... done
 Shell pair data                         ... done (   0.000 sec)



           ************************************************************
           *        Program running with 8 parallel MPI-processes     *
           *              working on a common directory               *
           ************************************************************
-------------------------------------------------------------------------------
                                 ORCA SCF
-------------------------------------------------------------------------------

------------
SCF SETTINGS
------------
Hamiltonian:
 Ab initio Hamiltonian  Method          .... Hartree-Fock(GTOs)


General Settings:
 Integral files         IntName         .... hydrogen_sulfide_MP2_aug-cc-pVTZ_OPT
 Hartree-Fock type      HFTyp           .... RHF
 Total Charge           Charge          ....    0
 Multiplicity           Mult            ....    1
 Number of Electrons    NEL             ....   18
 Basis Dimension        Dim             ....   96
 Nuclear Repulsion      ENuc            ....     12.9469065167 Eh

Convergence Acceleration:
 DIIS                   CNVDIIS         .... on
   Start iteration      DIISMaxIt       ....    12
   Startup error        DIISStart       ....  0.200000
   # of expansion vecs  DIISMaxEq       ....     5
   Bias factor          DIISBfac        ....   1.050
   Max. coefficient     DIISMaxC        ....  10.000
 Newton-Raphson         CNVNR           .... off
 SOSCF                  CNVSOSCF        .... on
   Start iteration      SOSCFMaxIt      ....   150
   Startup grad/error   SOSCFStart      ....  0.003300
 Level Shifting         CNVShift        .... on
   Level shift para.    LevelShift      ....    0.2500
   Turn off err/grad.   ShiftErr        ....    0.0010
 Zerner damping         CNVZerner       .... off
[...]
Population analysis         ....       0.003 sec  (  0.1%)
Initial guess               ....       0.004 sec  (  0.2%)
Orbital Transformation      ....       0.000 sec  (  0.0%)
Orbital Orthonormalization  ....       0.002 sec  (  0.1%)
DIIS solution               ....       0.001 sec  (  0.1%)
SOSCF solution              ....       0.085 sec  (  4.6%)


           ************************************************************
           *        Program running with 8 parallel MPI-processes     *
           *              working on a common directory               *
           ************************************************************

------------------------------------------------------------------------------
                                ORCA  MP2 
------------------------------------------------------------------------------

Freezing NCore=10 chemical core electrons
MP2 will be done in the AO integral direct mode
The Q1-step will be done using symmetric double matrices
Dimension of the basis                    ...   96
Memory devoted for MP2                    ... 1000 MB   
Memory needed for all in one shot         ...    4 MB
Number of MOs that can be treated together...  292      
MP2 density construction                  ... relaxed
The MP2 gradient is requested => amplitudes will be stored on disk
Total number of MOs              ...    4
Number of MOs treated per batch  ...    1 
Number of batches necessary      ...    1 
OPERATORS   0/  0 PASS   0
-----------------------------------------------
 MP2 CORRELATION ENERGY   :     -0.194947134 Eh
-----------------------------------------------


---------------------
MP2 DENSITY FORMATION
---------------------

Completing the external part of the density      ... done
Storing the unrelaxed density                    ... done

Calculating G(D)                                 ... done
Completing the Lagrangian                        ... done
Solving the Z-vector equations                   ... 

------------------------------------------------------------------------------
                           ORCA CP-SCF CALCULATION
------------------------------------------------------------------------------

Input orbitals are from        ... hydrogen_sulfide_MP2_aug-cc-pVTZ_OPT.gbw
Input Perturbation             ... hydrogen_sulfide_MP2_aug-cc-pVTZ_OPT.pin.tmp
Wavefunction output            ... hydrogen_sulfide_MP2_aug-cc-pVTZ_OPT.pout.tmp
Perturbation mode              ... Real perturbation (singlet)
Solver                         ... POPLE
Max. number of iterations      ... 128
Convergence tolerance          ... 1.000e-08
Integral handling              ... Direct
Number of perturbations        ... 1
Number of operators            ... 1
Orbital ranges used for CP-SCF:
 Operator 0:  Orbitals   0...  8  to   9... 95
Variables per vector in CP-SCF ... 783
Number of vectors sought       ... 1
     CP-SCF ITERATION   0: 
     CP-SCF ITERATION   1:      0.000063971727
     CP-SCF ITERATION   2:      0.000002522362
     CP-SCF ITERATION   3:      0.000000140018
     CP-SCF ITERATION   4:      0.000000006994
                                                 ... done
Finalizing the relaxed density                   ... done
Transforming P to the AO basis                   ... done
Storing the relaxed density                      ... done

------------------------------------
ENERGY WEIGHTED DENSITY FINALIZATION
------------------------------------

Gathering the parts of the W-matrix              ...                                                      done
Forming the Z-density                            ... done
Transforming Z to the AO basis                   ... done
Calculating G(Z)                                 ... done
Finalizing the W-matrix                          ...                                                      done
Transforming W to the AO basis and storing       ... done

                *********************************************
                * UNRELAXED MP2 DENSITY POPULATION ANALYSIS *
                *********************************************

------------------------------------------------------------------------------
                           ORCA POPULATION ANALYSIS
------------------------------------------------------------------------------
Input electron density              ... hydrogen_sulfide_MP2_aug-cc-pVTZ_OPT.pmp2ur
BaseName (.gbw .S,...)              ... hydrogen_sulfide_MP2_aug-cc-pVTZ_OPT

                    ********************************
                    * MULLIKEN POPULATION ANALYSIS *
                    ********************************

-----------------------
MULLIKEN ATOMIC CHARGES
-----------------------
   0 S :   -0.337099
   1 H :    0.168549
   2 H :    0.168550
Sum of atomic charges:   -0.0000000

--------------------------------
MULLIKEN REDUCED ORBITAL CHARGES
--------------------------------
  0 S s       :     5.792445  s :     5.792445
      pz      :     3.895086  p :    10.337132
      px      :     3.181073
      py      :     3.260974
      dz2     :     0.035689  d :     0.189387
      dxz     :     0.015813
      dyz     :     0.016298
      dx2y2   :     0.098703
      dxy     :     0.022883
      f0      :     0.001890  f :     0.018136
      f+1     :     0.003759
      f-1     :     0.003448
      f+2     :     0.001371
      f-2     :     0.001258
      f+3     :     0.002775
      f-3     :     0.003635
  1 H s       :     0.765866  s :     0.765866
      pz      :     0.031269  p :     0.057829
      px      :     0.007906
      py      :     0.018654
      dz2     :     0.000268  d :     0.007755
      dxz     :     0.000399
      dyz     :     0.004184
      dx2y2   :     0.002162
      dxy     :     0.000741
  2 H s       :     0.765866  s :     0.765866
      pz      :     0.031269  p :     0.057829
      px      :     0.019815
      py      :     0.006745
      dz2     :     0.000268  d :     0.007755
      dxz     :     0.004311
      dyz     :     0.000273
      dx2y2   :     0.001582
      dxy     :     0.001322


                     *******************************
                     * LOEWDIN POPULATION ANALYSIS *
                     *******************************

----------------------
LOEWDIN ATOMIC CHARGES
----------------------
   0 S :    1.300515
   1 H :   -0.650257
   2 H :   -0.650258

-------------------------------
LOEWDIN REDUCED ORBITAL CHARGES
-------------------------------
  0 S s       :     5.020080  s :     5.020080
      pz      :     3.360153  p :     9.387174
      px      :     2.964805
      py      :     3.062216
      dz2     :     0.048360  d :     0.242487
      dxz     :     0.015813
      dyz     :     0.018089
      dx2y2   :     0.127385
      dxy     :     0.032840
      f0      :     0.001772  f :     0.049744
      f+1     :     0.008115
      f-1     :     0.007377
      f+2     :     0.001489
      f-2     :     0.001243
      f+3     :     0.014647
      f-3     :     0.015101
  1 H s       :     0.788732  s :     0.788732
      pz      :     0.181381  p :     0.546384
      px      :     0.117675
      py      :     0.247329
      dz2     :     0.025827  d :     0.315141
      dxz     :     0.003675
      dyz     :     0.117375
      dx2y2   :     0.083059
      dxy     :     0.085205
  2 H s       :     0.788732  s :     0.788732
      pz      :     0.181381  p :     0.546385
      px      :     0.234689
      py      :     0.130315
      dz2     :     0.025827  d :     0.315141
      dxz     :     0.116540
      dyz     :     0.004510
      dx2y2   :     0.058713
      dxy     :     0.109551


                      *****************************
                      * MAYER POPULATION ANALYSIS *
                      *****************************

  NA   - Mulliken gross atomic population
  ZA   - Total nuclear charge
  QA   - Mulliken gross atomic charge
  VA   - Mayer's total valence
  BVA  - Mayer's bonded valence
  FA   - Mayer's free valence

  ATOM       NA         ZA         QA         VA         BVA        FA
  0 S     16.3371    16.0000    -0.3371     2.4153     1.9213     0.4940
  1 H      0.8315     1.0000     0.1685     1.0326     0.9720     0.0605
  2 H      0.8315     1.0000     0.1685     1.0326     0.9720     0.0605

  Mayer bond orders larger than 0.100000
B(  0-S ,  1-H ) :   0.9607 B(  0-S ,  2-H ) :   0.9607 


                *******************************************
                * RELAXED MP2 DENSITY POPULATION ANALYSIS *
                *******************************************

------------------------------------------------------------------------------
                           ORCA POPULATION ANALYSIS
------------------------------------------------------------------------------
Input electron density              ... hydrogen_sulfide_MP2_aug-cc-pVTZ_OPT.pmp2re
BaseName (.gbw .S,...)              ... hydrogen_sulfide_MP2_aug-cc-pVTZ_OPT

                    ********************************
                    * MULLIKEN POPULATION ANALYSIS *
                    ********************************

-----------------------
MULLIKEN ATOMIC CHARGES
-----------------------
   0 S :   -0.362839
   1 H :    0.181419
   2 H :    0.181420
Sum of atomic charges:   -0.0000000

--------------------------------
MULLIKEN REDUCED ORBITAL CHARGES
--------------------------------
  0 S s       :     5.811585  s :     5.811585
      pz      :     3.882244  p :    10.362851
      px      :     3.206971
      py      :     3.273636
      dz2     :     0.031411  d :     0.171175
      dxz     :     0.016239
      dyz     :     0.017151
      dx2y2   :     0.084809
      dxy     :     0.021566
      f0      :     0.002020  f :     0.017227
      f+1     :     0.003688
      f-1     :     0.003402
      f+2     :     0.001371
      f-2     :     0.001258
      f+3     :     0.002423
      f-3     :     0.003066
  1 H s       :     0.744943  s :     0.744943
      pz      :     0.037195  p :     0.066326
      px      :     0.010961
      py      :     0.018170
      dz2     :     0.000238  d :     0.007312
      dxz     :     0.000444
      dyz     :     0.003929
      dx2y2   :     0.002056
      dxy     :     0.000644
  2 H s       :     0.744942  s :     0.744942
      pz      :     0.037195  p :     0.066326
      px      :     0.019422
      py      :     0.009709
      dz2     :     0.000238  d :     0.007312
      dxz     :     0.004138
      dyz     :     0.000236
      dx2y2   :     0.001356
      dxy     :     0.001343


                     *******************************
                     * LOEWDIN POPULATION ANALYSIS *
                     *******************************

----------------------
LOEWDIN ATOMIC CHARGES
----------------------
   0 S :    1.305331
   1 H :   -0.652665
   2 H :   -0.652666

-------------------------------
LOEWDIN REDUCED ORBITAL CHARGES
-------------------------------
  0 S s       :     5.023777  s :     5.023777
      pz      :     3.353438  p :     9.405076
      px      :     2.981109
      py      :     3.070529
      dz2     :     0.044394  d :     0.217301
      dxz     :     0.015016
      dyz     :     0.016495
      dx2y2   :     0.112790
      dxy     :     0.028606
      f0      :     0.001681  f :     0.048515
      f+1     :     0.008019
      f-1     :     0.007339
      f+2     :     0.001488
      f-2     :     0.001237
      f+3     :     0.014241
      f-3     :     0.014509
  1 H s       :     0.778325  s :     0.778325
      pz      :     0.187393  p :     0.558935
      px      :     0.122460
      py      :     0.249082
      dz2     :     0.025995  d :     0.315405
      dxz     :     0.003947
      dyz     :     0.115693
      dx2y2   :     0.083206
      dxy     :     0.086564
  2 H s       :     0.778325  s :     0.778325
      pz      :     0.187393  p :     0.558936
      px      :     0.235186
      py      :     0.136357
      dz2     :     0.025995  d :     0.315405
      dxz     :     0.115519
      dyz     :     0.004121
      dx2y2   :     0.059205
      dxy     :     0.110565


                      *****************************
                      * MAYER POPULATION ANALYSIS *
                      *****************************

  NA   - Mulliken gross atomic population
  ZA   - Total nuclear charge
  QA   - Mulliken gross atomic charge
  VA   - Mayer's total valence
  BVA  - Mayer's bonded valence
  FA   - Mayer's free valence

  ATOM       NA         ZA         QA         VA         BVA        FA
  0 S     16.3628    16.0000    -0.3628     2.4107     1.9242     0.4866
  1 H      0.8186     1.0000     0.1814     1.0399     0.9798     0.0600
  2 H      0.8186     1.0000     0.1814     1.0399     0.9798     0.0600

  Mayer bond orders larger than 0.100000
B(  0-S ,  1-H ) :   0.9621 B(  0-S ,  2-H ) :   0.9621 


----------------------------------
MP2 DERIVATIVE INTEGRAL GENERATION
----------------------------------


Input Wavefunction Amplitudes       ... hydrogen_sulfide_MP2_aug-cc-pVTZ_OPT.mp2tsaa.tmp
Input Correlated Electron Density   ... hydrogen_sulfide_MP2_aug-cc-pVTZ_OPT.pmp2re
Input Energy Weighted Density       ... hydrogen_sulfide_MP2_aug-cc-pVTZ_OPT.wmp2.tmp
Input SCF Electron Density          ... hydrogen_sulfide_MP2_aug-cc-pVTZ_OPT.scfp

One-Electron Terms    ...
                        ... One-Electron Terms done
Prescreening matrices              ... done

Batch handling in the gradient evaluation:
Memory available                      ... 1000.0 MB
Memory per occupied orbital in Q2     ...    0.3 MB
Memory per occupied orbital in Q3     ...    0.0 MB
Total memory requirement per |i>      ...    0.3 MB
Max. Number of orbitals possible      ...   3153
Number of orbitals treated per batch  ...      4
Number of batches to be done          ...      1
Batch   0: i=    5 ...     8

---------------------------------------
MP2 TOTAL ENERGY:     -398.908817802 Eh
---------------------------------------

-----------------------------------
NORM OF THE MP2 GRADIENT:  0.000006
-----------------------------------

-------------------------   --------------------
FINAL SINGLE POINT ENERGY      -398.908817802480
-------------------------   --------------------

                                *** OPTIMIZATION RUN DONE ***

                            ***************************************
                            *     ORCA property calculations      *
                            ***************************************

                                    ---------------------
                                    Active property flags
                                    ---------------------
   (+) Dipole Moment


------------------------------------------------------------------------------
                       ORCA ELECTRIC PROPERTIES CALCULATION
------------------------------------------------------------------------------

Dipole Moment Calculation                       ... on
Quadrupole Moment Calculation                   ... off
Polarizability Calculation                      ... off
GBWName                                         ... hydrogen_sulfide_MP2_aug-cc-pVTZ_OPT.gbw
Electron density file                           ... hydrogen_sulfide_MP2_aug-cc-pVTZ_OPT.scfp
The origin for moment calculation is the CENTER OF MASS  = (-0.042873, -0.060635  0.000000)

-------------
DIPOLE MOMENT
-------------
                                X             Y             Z
Electronic contribution:     -0.69721      -0.98601      -0.00000
Nuclear contribution   :      0.94507       1.33653       0.00000
                        -----------------------------------------
Total Dipole Moment    :      0.24786       0.35052      -0.00000
                        -----------------------------------------
Magnitude (a.u.)       :      0.42930
Magnitude (Debye)      :      1.09120



--------------------
Rotational spectrum 
--------------------
 
Rotational constants in cm-1:    10.357175     9.015168     4.819844 
Rotational constants in MHz : 310500.288393 270267.946337 144495.291345 

 Dipole components along the rotational axes: 
x,y,z [a.u.] :     0.000001     0.429302    -0.000000 
x,y,z [Debye]:     0.000003     1.091199    -0.000000 

 

                         *** MP2 UNRELAXED DENSITY ***

------------------------------------------------------------------------------
                       ORCA ELECTRIC PROPERTIES CALCULATION
------------------------------------------------------------------------------

Dipole Moment Calculation                       ... on
Quadrupole Moment Calculation                   ... off
Polarizability Calculation                      ... off
GBWName                                         ... hydrogen_sulfide_MP2_aug-cc-pVTZ_OPT.gbw
Electron density file                           ... hydrogen_sulfide_MP2_aug-cc-pVTZ_OPT.pmp2ur
The origin for moment calculation is the CENTER OF MASS  = (-0.042873, -0.060635  0.000000)

-------------
DIPOLE MOMENT
-------------
                                X             Y             Z
Electronic contribution:     -0.69986      -0.98975      -0.00000
Nuclear contribution   :      0.94507       1.33653       0.00000
                        -----------------------------------------
Total Dipole Moment    :      0.24521       0.34678      -0.00000
                        -----------------------------------------
Magnitude (a.u.)       :      0.42472
Magnitude (Debye)      :      1.07955



--------------------
Rotational spectrum 
--------------------
 
Rotational constants in cm-1:    10.357175     9.015168     4.819844 
Rotational constants in MHz : 310500.288393 270267.946337 144495.291345 

 Dipole components along the rotational axes: 
x,y,z [a.u.] :     0.000001     0.424719    -0.000000 
x,y,z [Debye]:     0.000003     1.079551    -0.000000 

 

                           *** MP2 RELAXED DENSITY ***

------------------------------------------------------------------------------
                       ORCA ELECTRIC PROPERTIES CALCULATION
------------------------------------------------------------------------------

Dipole Moment Calculation                       ... on
Quadrupole Moment Calculation                   ... off
Polarizability Calculation                      ... off
GBWName                                         ... hydrogen_sulfide_MP2_aug-cc-pVTZ_OPT.gbw
Electron density file                           ... hydrogen_sulfide_MP2_aug-cc-pVTZ_OPT.pmp2re
The origin for moment calculation is the CENTER OF MASS  = (-0.042873, -0.060635  0.000000)

-------------
DIPOLE MOMENT
-------------
                                X             Y             Z
Electronic contribution:     -0.71653      -1.01333      -0.00000
Nuclear contribution   :      0.94507       1.33653       0.00000
                        -----------------------------------------
Total Dipole Moment    :      0.22854       0.32321      -0.00000
                        -----------------------------------------
Magnitude (a.u.)       :      0.39584
Magnitude (Debye)      :      1.00616



--------------------
Rotational spectrum 
--------------------
 
Rotational constants in cm-1:    10.357175     9.015168     4.819844 
Rotational constants in MHz : 310500.288393 270267.946337 144495.291345 

 Dipole components along the rotational axes: 
x,y,z [a.u.] :     0.000001     0.395845    -0.000000 
x,y,z [Debye]:     0.000003     1.006158    -0.000000 

 

Timings for individual modules:

Sum of individual times         ...       39.805 sec (=   0.663 min)
GTO integral calculation        ...        4.220 sec (=   0.070 min)  10.6 %
SCF iterations                  ...       10.613 sec (=   0.177 min)  26.7 %
MP2 module                      ...       23.232 sec (=   0.387 min)  58.4 %
Geometry relaxation             ...        1.741 sec (=   0.029 min)   4.4 %
                             ****ORCA TERMINATED NORMALLY****
TOTAL RUN TIME: 0 days 0 hours 0 minutes 42 seconds 340 msec
