
                                 *****************
                                 * O   R   C   A *
                                 *****************

           --- An Ab Initio, DFT and Semiempirical electronic structure package ---

                  #######################################################
                  #                        -***-                        #
                  #          Department of theory and spectroscopy      #
                  #               Directorship: Frank Neese             #
                  #        Max Planck Institute fuer Kohlenforschung    #
                  #                Kaiser Wilhelm Platz 1               #
                  #                 D-45470 Muelheim/Ruhr               #
                  #                      Germany                        #
                  #                                                     #
                  #                  All rights reserved                #
                  #                        -***-                        #
                  #######################################################


                         Program Version 4.2.1 -  RELEASE  -


 With contributions from (in alphabetic order):
   Daniel Aravena         : Magnetic Suceptibility
   Michael Atanasov       : Ab Initio Ligand Field Theory (pilot matlab implementation)
   Alexander A. Auer      : GIAO ZORA, VPT2
   Ute Becker             : Parallelization
   Giovanni Bistoni       : ED, misc. LED, open-shell LED, HFLD
   Martin Brehm           : Molecular dynamics
   Dmytro Bykov           : SCF Hessian
   Vijay G. Chilkuri      : MRCI spin determinant printing, contributions to CSF-ICE
   Dipayan Datta          : RHF DLPNO-CCSD density
   Achintya Kumar Dutta   : EOM-CC, STEOM-CC
   Dmitry Ganyushin       : Spin-Orbit,Spin-Spin,Magnetic field MRCI
   Miquel Garcia          : C-PCM Hessian, Gaussian charge scheme
   Yang Guo               : DLPNO-NEVPT2, CIM, IAO-localization
   Andreas Hansen         : Spin unrestricted coupled pair/coupled cluster methods
   Benjamin Helmich-Paris : CASSCF linear response (MC-RPA)
   Lee Huntington         : MR-EOM, pCC
   Robert Izsak           : Overlap fitted RIJCOSX, COSX-SCS-MP3, EOM
   Christian Kollmar      : KDIIS, OOCD, Brueckner-CCSD(T), CCSD density
   Simone Kossmann        : Meta GGA functionals, TD-DFT gradient, OOMP2, MP2 Hessian
   Martin Krupicka        : AUTO-CI
   Lucas Lang             : DCDCAS
   Dagmar Lenk            : GEPOL surface, SMD
   Dimitrios Liakos       : Extrapolation schemes; Compound Job, initial MDCI parallelization
   Dimitrios Manganas     : Further ROCIS development; embedding schemes
   Dimitrios Pantazis     : SARC Basis sets
   Taras Petrenko         : DFT Hessian,TD-DFT gradient, ASA, ECA, R-Raman, ABS, FL, XAS/XES, NRVS
   Peter Pinski           : DLPNO-MP2, DLPNO-MP2 Gradient
   Christoph Reimann      : Effective Core Potentials
   Marius Retegan         : Local ZFS, SOC
   Christoph Riplinger    : Optimizer, TS searches, QM/MM, DLPNO-CCSD(T), (RO)-DLPNO pert. Triples
   Tobias Risthaus        : Range-separated hybrids, TD-DFT gradient, RPA, STAB
   Michael Roemelt        : Original ROCIS implementation
   Masaaki Saitow         : Open-shell DLPNO-CCSD energy and density
   Barbara Sandhoefer     : DKH picture change effects
   Avijit Sen             : IP-ROCIS
   Kantharuban Sivalingam : CASSCF convergence, NEVPT2, FIC-MRCI
   Bernardo de Souza      : ESD, SOC TD-DFT
   Georgi Stoychev        : AutoAux, RI-MP2 NMR
   Willem Van den Heuvel  : Paramagnetic NMR
   Boris Wezisla          : Elementary symmetry handling
   Frank Wennmohs         : Technical directorship


 We gratefully acknowledge several colleagues who have allowed us to
 interface, adapt or use parts of their codes:
   Stefan Grimme, W. Hujo, H. Kruse,             : VdW corrections, initial TS optimization,
                  C. Bannwarth                     DFT functionals, gCP, sTDA/sTD-DF
   Ed Valeev, F. Pavosevic, A. Kumar             : LibInt (2-el integral package), F12 methods
   Garnet Chan, S. Sharma, J. Yang, R. Olivares  : DMRG
   Ulf Ekstrom                                   : XCFun DFT Library
   Mihaly Kallay                                 : mrcc  (arbitrary order and MRCC methods)
   Andreas Klamt, Michael Diedenhofen            : otool_cosmo (COSMO solvation model)
   Jiri Pittner, Ondrej Demel                    : Mk-CCSD
   Frank Weinhold                                : gennbo (NPA and NBO analysis)
   Christopher J. Cramer and Donald G. Truhlar   : smd solvation model
   Lars Goerigk                                  : TD-DFT with DH, B97 family of functionals
   V. Asgeirsson, H. Jonsson                     : NEB implementation
   FAccTs GmbH                                   : IRC, NEB, NEB-TS, Multilevel, MM, QM/MM, CI optimization
   S Lehtola, MJT Oliveira, MAL Marques          : LibXC Library


 Your calculation uses the libint2 library for the computation of 2-el integrals
 For citations please refer to: http://libint.valeyev.net

 Your ORCA version has been built with support for libXC version: 4.2.3
 For citations please refer to: https://tddft.org/programs/libxc/

 This ORCA versions uses:
   CBLAS   interface :  Fast vector & matrix operations
   LAPACKE interface :  Fast linear algebra routines
   SCALAPACK package :  Parallel linear algebra routines




***************************************
The coordinates will be read from file: hydrogen_sulfide_B3LYP_cc-pVDZ_OPT.xyz
***************************************


----- Orbital basis set information -----
Your calculation utilizes the basis: cc-pVTZ 
       H, B-Ne : Obtained from the ccRepo (grant-hill.group.shef.ac.uk/ccrepo) Feb. 2017
                 T. H. Dunning, Jr., J. Chem. Phys. 90, 1007 (1989)
            He : Obtained from the ccRepo (grant-hill.group.shef.ac.uk/ccrepo) Feb. 2017
                 D. E. Woon, T. H. Dunning, Jr., J. Chem. Phys. 100, 2975 (1994)
  Li-Be, Na-Mg : Obtained from the ccRepo (grant-hill.group.shef.ac.uk/ccrepo) Feb. 2017
                 B. P. Prascher, D. E. Woon, K. A. Peterson, T. H. Dunning, Jr., A. K. Wilson, Theor. Chem. Acc. 128, 69 (2011)
         Al-Ar : Obtained from the ccRepo (grant-hill.group.shef.ac.uk/ccrepo) Feb. 2017
                 D. E. Woon, T. H. Dunning, Jr., J. Chem. Phys. 98, 1358 (1993)
            Ca : Obtained from the Peterson Research Group Website (tyr0.chem.wsu.edu/~kipeters) Feb. 2017
                 J. Koput, K. A. Peterson, J. Phys. Chem. 106, 9595 (2002)
         Sc-Zn : Obtained from the ccRepo (grant-hill.group.shef.ac.uk/ccrepo) Feb. 2017
                 N. B. Balabanov, K. A. Peterson, J. Chem. Phys. 123, 064107 (2005)
                 N. B. Balabanov, K. A. Peterson, J. Chem. Phys. 125, 074110 (2006)
         Ga-Kr : Obtained from the ccRepo (grant-hill.group.shef.ac.uk/ccrepo) Feb. 2017
                 A. K. Wilson, D. E. Woon, K. A. Peterson, T. H. Dunning, Jr., J. Chem. Phys. 110, 7667 (1999)
             Y : Obtained from the ccRepo (grant-hill.group.shef.ac.uk/ccrepo) Feb. 2017
                 K. A. Peterson, D. Figgen, M. Dolg, H. Stoll, J. Chem. Phys. 126, 124101 (2007)
        Ag, Au : Obtained from the Peterson Research Group Website (tyr0.chem.wsu.edu/~kipeters) Feb. 2017
                 K. A. Peterson, C. Puzzarini, Theor. Chem. Acc. 114, 283 (2005)

================================================================================
                                        WARNINGS
                       Please study these warnings very carefully!
================================================================================


WARNING: Geometry Optimization
  ===> : Switching off AutoStart
         For restart on a previous wavefunction, please use MOREAD

INFO   : the flag for use of LIBINT has been found!

================================================================================
                                       INPUT FILE
================================================================================
NAME = hydrogen_sulfide_B3LYP_cc-pVTZ_OPT.inp
|  1> # hydrogen_sulfide OPT with B3LYP/cc-pVTZ
|  2> 
|  3> ! B3LYP cc-pVTZ TightSCF Opt PAL8
|  4> %maxcore 1000
|  5> 
|  6> * xyzfile 0 1 hydrogen_sulfide_B3LYP_cc-pVDZ_OPT.xyz
|  7> 
|  8> 
|  9>                          ****END OF INPUT****
================================================================================

                       *****************************
                       * Geometry Optimization Run *
                       *****************************

Geometry optimization settings:
Update method            Update   .... BFGS
Choice of coordinates    CoordSys .... Z-matrix Internals
Initial Hessian          InHess   .... Almoef's Model

Convergence Tolerances:
Energy Change            TolE     ....  5.0000e-06 Eh
Max. Gradient            TolMAXG  ....  3.0000e-04 Eh/bohr
RMS Gradient             TolRMSG  ....  1.0000e-04 Eh/bohr
Max. Displacement        TolMAXD  ....  4.0000e-03 bohr
RMS Displacement         TolRMSD  ....  2.0000e-03 bohr
Strict Convergence                ....  False
------------------------------------------------------------------------------
                        ORCA OPTIMIZATION COORDINATE SETUP
------------------------------------------------------------------------------

The optimization will be done in new redundant internal coordinates
Making redundant internal coordinates   ...  (new redundants) done
Evaluating the initial hessian          ...  (Almloef) done
Evaluating the coordinates              ...  done
Calculating the B-matrix                .... done
Calculating the G-matrix                .... done
Diagonalizing the G-matrix              .... done
The first mode is                       ....    0
The number of degrees of freedom        ....    3

    -----------------------------------------------------------------
                    Redundant Internal Coordinates


    -----------------------------------------------------------------
         Definition                    Initial Value    Approx d2E/dq
    -----------------------------------------------------------------
      1. B(H   1,S   0)                  1.3579         0.362910   
      2. B(H   2,S   0)                  1.3583         0.362385   
      3. A(H   1,S   0,H   2)           92.2746         0.332852   
    -----------------------------------------------------------------

Number of atoms                         .... 3
Number of degrees of freedom            .... 3

         *************************************************************
         *                GEOMETRY OPTIMIZATION CYCLE   1            *
         *************************************************************
---------------------------------
CARTESIAN COORDINATES (ANGSTROEM)
---------------------------------
  S     -0.060104   -0.084760    0.000000
  H     -0.316149    1.248765    0.000000
  H      1.282923    0.118215    0.000000

----------------------------
CARTESIAN COORDINATES (A.U.)
----------------------------
  NO LB      ZA    FRAG     MASS         X           Y           Z
   0 S    16.0000    0    32.060   -0.113580   -0.160173    0.000000
   1 H     1.0000    0     1.008   -0.597435    2.359824    0.000000
   2 H     1.0000    0     1.008    2.424373    0.223393    0.000000

--------------------------------
INTERNAL COORDINATES (ANGSTROEM)
--------------------------------
 S      0   0   0     0.000000000000     0.00000000     0.00000000
 H      1   0   0     1.357884023924     0.00000000     0.00000000
 H      1   2   0     1.358278322938    92.27464819     0.00000000

---------------------------
INTERNAL COORDINATES (A.U.)
---------------------------
 S      0   0   0     0.000000000000     0.00000000     0.00000000
 H      1   0   0     2.566028926843     0.00000000     0.00000000
 H      1   2   0     2.566774043995    92.27464819     0.00000000

---------------------
BASIS SET INFORMATION
---------------------
There are 2 groups of distinct atoms

 Group   1 Type S   : 41s16p2d1f contracted to 5s4p2d1f pattern {13131311/7711/11/1}
 Group   2 Type H   : 5s2p1d contracted to 3s2p1d pattern {311/11/1}

Atom   0S    basis set group =>   1
Atom   1H    basis set group =>   2
Atom   2H    basis set group =>   2


           ************************************************************
           *        Program running with 8 parallel MPI-processes     *
           *              working on a common directory               *
           ************************************************************
------------------------------------------------------------------------------
                           ORCA GTO INTEGRAL CALCULATION
------------------------------------------------------------------------------

                         BASIS SET STATISTICS AND STARTUP INFO

 # of primitive gaussian shells          ...   76
 # of primitive gaussian functions       ...  138
 # of contracted shells                  ...   24
 # of contracted basis functions         ...   62
 Highest angular momentum                ...    3
 Maximum contraction depth               ...   13
 Integral package used                   ... LIBINT
 Integral threshhold            Thresh   ...  2.500e-11
 Primitive cut-off              TCut     ...  2.500e-12


------------------------------ INTEGRAL EVALUATION ----------------------------


 * One electron integrals 
 Pre-screening matrix                    ... done
 Shell pair data                         ... done (   0.000 sec)



           ************************************************************
           *        Program running with 8 parallel MPI-processes     *
           *              working on a common directory               *
           ************************************************************
-------------------------------------------------------------------------------
                                 ORCA SCF
-------------------------------------------------------------------------------

------------
SCF SETTINGS
------------
Hamiltonian:
 Density Functional     Method          .... DFT(GTOs)
 Exchange Functional    Exchange        .... B88
   X-Alpha parameter    XAlpha          ....  0.666667
   Becke's b parameter  XBeta           ....  0.004200
 Correlation Functional Correlation     .... LYP
 LDA part of GGA corr.  LDAOpt          .... VWN-5
 Gradients option       PostSCFGGA      .... off
 Hybrid DFT is turned on
   Fraction HF Exchange ScalHFX         ....  0.200000
   Scaling of DF-GGA-X  ScalDFX         ....  0.720000
   Scaling of DF-GGA-C  ScalDFC         ....  0.810000
   Scaling of DF-LDA-C  ScalLDAC        ....  1.000000
   Perturbative correction              ....  0.000000
   Density functional embedding theory  .... OFF
   NL short-range parameter             ....  4.800000


General Settings:
 Integral files         IntName         .... hydrogen_sulfide_B3LYP_cc-pVTZ_OPT
 Hartree-Fock type      HFTyp           .... RHF
 Total Charge           Charge          ....    0
 Multiplicity           Mult            ....    1
 Number of Electrons    NEL             ....   18
 Basis Dimension        Dim             ....   62
 Nuclear Repulsion      ENuc            ....     12.7390354044 Eh

Convergence Acceleration:
 DIIS                   CNVDIIS         .... on
   Start iteration      DIISMaxIt       ....    12
   Startup error        DIISStart       ....  0.200000
   # of expansion vecs  DIISMaxEq       ....     5
   Bias factor          DIISBfac        ....   1.050
   Max. coefficient     DIISMaxC        ....  10.000
 Newton-Raphson         CNVNR           .... off
 SOSCF                  CNVSOSCF        .... on
   Start iteration      SOSCFMaxIt      ....   150
   Startup grad/error   SOSCFStart      ....  0.003300
 Level Shifting         CNVShift        .... on
   Level shift para.    LevelShift      ....    0.2500
   Turn off err/grad.   ShiftErr        ....    0.0010
 Zerner damping         CNVZerner       .... off
 Static damping         CNVDamp         .... on
   Fraction old density DampFac         ....    0.7000
   Max. Damping (<1)    DampMax         ....    0.9800
   Min. Damping (>=0)   DampMin         ....    0.0000
   Turn off err/grad.   DampErr         ....    0.1000
 Fernandez-Rico         CNVRico         .... off

SCF Procedure:
 Maximum # iterations   MaxIter         ....   125
 SCF integral mode      SCFMode         .... Direct
   Integral package                     .... LIBINT
 Reset frequency        DirectResetFreq ....    20
 Integral Threshold     Thresh          ....  2.500e-11 Eh
 Primitive CutOff       TCut            ....  2.500e-12 Eh

Convergence Tolerance:
 Convergence Check Mode ConvCheckMode   .... Total+1el-Energy
 Convergence forced     ConvForced      .... 0
 Energy Change          TolE            ....  1.000e-08 Eh
 1-El. energy change                    ....  1.000e-05 Eh
 Orbital Gradient       TolG            ....  1.000e-05
 Orbital Rotation angle TolX            ....  1.000e-05
 DIIS Error             TolErr          ....  5.000e-07


Diagonalization of the overlap matrix:
Smallest eigenvalue                        ... 3.268e-03
Time for diagonalization                   ...    0.001 sec
Threshold for overlap eigenvalues          ... 1.000e-08
Number of eigenvalues below threshold      ... 0
Time for construction of square roots      ...    0.001 sec
Total time needed                          ...    0.002 sec

-------------------
DFT GRID GENERATION
-------------------

General Integration Accuracy     IntAcc      ...  4.340
Radial Grid Type                 RadialGrid  ... Gauss-Chebyshev
Angular Grid (max. acc.)         AngularGrid ... Lebedev-110
Angular grid pruning method      GridPruning ... 3 (G Style)
Weight generation scheme         WeightScheme... Becke
Basis function cutoff            BFCut       ...    1.0000e-11
Integration weight cutoff        WCut        ...    1.0000e-14
Grids for H and He will be reduced by one unit

# of grid points (after initial pruning)     ...   3394 (   0.0 sec)
# of grid points (after weights+screening)   ...   3370 (   0.0 sec)
nearest neighbour list constructed           ...    0.0 sec
Grid point re-assignment to atoms done       ...    0.0 sec
Grid point division into batches done        ...    0.0 sec
Reduced shell lists constructed in    0.0 sec

Total number of grid points                  ...     3370
Total number of batches                      ...       54
Average number of points per batch           ...       62
Average number of grid points per atom       ...     1123
Average number of shells per batch           ...    20.00 (83.33%)
Average number of basis functions per batch  ...    51.50 (83.06%)
Average number of large shells per batch     ...    16.38 (81.88%)
Average number of large basis fcns per batch ...    42.62 (82.77%)
Maximum spatial batch extension              ...  19.13, 16.28, 29.83 au
Average spatial batch extension              ...   1.53,  1.24,  1.89 au

Time for grid setup =    0.959 sec

------------------------------
INITIAL GUESS: MODEL POTENTIAL
------------------------------
Loading Hartree-Fock densities                     ... done
Calculating cut-offs                               ... done
Setting up the integral package                    ... done
Initializing the effective Hamiltonian             ... done
Starting the Coulomb interaction                   ... done (   0.0 sec)
Reading the grid                                   ... done
Mapping shells                                     ... done
Starting the XC term evaluation                    ... done (   0.0 sec)
  promolecular density results
     # of electrons  =     17.997153299
     EX              =    -25.599391911
     EC              =     -0.698885198
     EX+EC           =    -26.298277109
Transforming the Hamiltonian                       ... done (   0.0 sec)
Diagonalizing the Hamiltonian                      ... done (   0.0 sec)
Back transforming the eigenvectors                 ... done (   0.0 sec)
Now organizing SCF variables                       ... done
                      ------------------
                      INITIAL GUESS DONE (   1.0 sec)
                      ------------------
--------------
SCF ITERATIONS
--------------
ITER       Energy         Delta-E        Max-DP      RMS-DP      [F,P]     Damp
               ***  Starting incremental Fock matrix formation  ***
  0   -399.3508544620   0.000000000000 0.02617570  0.00100878  0.0759800 0.7000
  1   -399.3554663110  -0.004611848951 0.02212401  0.00082404  0.0459576 0.7000
                               ***Turning on DIIS***
  2   -399.3577398166  -0.002273505647 0.04310866  0.00159523  0.0230970 0.0000
  3   -399.3609197943  -0.003179977612 0.01450985  0.00054338  0.0188949 0.0000
  4   -399.3617016088  -0.000781814553 0.00426466  0.00014222  0.0035071 0.0000
                      *** Initiating the SOSCF procedure ***
                           *** Shutting down DIIS ***
                      *** Re-Reading the Fockian *** 
                      *** Removing any level shift *** 
ITER      Energy       Delta-E        Grad      Rot      Max-DP    RMS-DP
  5   -399.36173002  -0.0000284160  0.000461  0.000461  0.001875  0.000062
               *** Restarting incremental Fock matrix formation ***
  6   -399.36173252  -0.0000024908  0.000137  0.000217  0.000403  0.000015
  7   -399.36173250   0.0000000119  0.000136  0.000123  0.000195  0.000008
                  ***Gradient check signals convergence***
              ***Rediagonalizing the Fockian in SOSCF/NRSCF***

               *****************************************************
               *                     SUCCESS                       *
               *           SCF CONVERGED AFTER   8 CYCLES          *
               *****************************************************

Setting up the final grid:

General Integration Accuracy     IntAcc      ...  4.670
Radial Grid Type                 RadialGrid  ... Gauss-Chebyshev
Angular Grid (max. acc.)         AngularGrid ... Lebedev-302
Angular grid pruning method      GridPruning ... 3 (G Style)
Weight generation scheme         WeightScheme... Becke
Basis function cutoff            BFCut       ...    1.0000e-11
Integration weight cutoff        WCut        ...    1.0000e-14
Grids for H and He will be reduced by one unit

# of grid points (after initial pruning)     ...  13634 (   0.0 sec)
# of grid points (after weights+screening)   ...  13550 (   0.0 sec)
nearest neighbour list constructed           ...    0.0 sec
Grid point re-assignment to atoms done       ...    0.0 sec
Grid point division into batches done        ...    0.0 sec
Reduced shell lists constructed in    0.0 sec

Total number of grid points                  ...    13550
Total number of batches                      ...      213
Average number of points per batch           ...       63
Average number of grid points per atom       ...     4517
Average number of shells per batch           ...    16.07 (66.96%)
Average number of basis functions per batch  ...    40.50 (65.32%)
Average number of large shells per batch     ...    13.39 (83.33%)
Average number of large basis fcns per batch ...    33.96 (83.86%)
Maximum spatial batch extension              ...  19.22, 14.83, 19.50 au
Average spatial batch extension              ...   0.94,  0.78,  0.93 au

Final grid set up in    0.3 sec
Final integration                            ... done (   0.4 sec)
Change in XC energy                          ...    -0.000792981
Integrated number of electrons               ...    18.000004187
Previous integrated no of electrons          ...    17.997612076

----------------
TOTAL SCF ENERGY
----------------

Total Energy       :         -399.36252562 Eh          -10867.20680 eV

Components:
Nuclear Repulsion  :           12.73903540 Eh             346.64678 eV
Electronic Energy  :         -412.10156102 Eh          -11213.85358 eV
One Electron Energy:         -576.40156546 Eh          -15684.68399 eV
Two Electron Energy:          164.30000444 Eh            4470.83041 eV

Virial components:
Potential Energy   :         -797.58070157 Eh          -21703.27426 eV
Kinetic Energy     :          398.21817596 Eh           10836.06746 eV
Virial Ratio       :            2.00287368


DFT components:
N(Alpha)           :        9.000002093431 electrons
N(Beta)            :        9.000002093431 electrons
N(Total)           :       18.000004186863 electrons
E(X)               :      -20.374203681669 Eh       
E(C)               :       -0.823742752900 Eh       
E(XC)              :      -21.197946434568 Eh       
DFET-embed. en.    :        0.000000000000 Eh       

---------------
SCF CONVERGENCE
---------------

  Last Energy change         ...   -1.3160e-07  Tolerance :   1.0000e-08
  Last MAX-Density change    ...    4.8138e-06  Tolerance :   1.0000e-07
  Last RMS-Density change    ...    1.6962e-07  Tolerance :   5.0000e-09
  Last Orbital Gradient      ...    1.1686e-06  Tolerance :   1.0000e-05
  Last Orbital Rotation      ...    2.0251e-06  Tolerance :   1.0000e-05

             **** THE GBW FILE WAS UPDATED (hydrogen_sulfide_B3LYP_cc-pVTZ_OPT.gbw) ****
             **** DENSITY FILE WAS UPDATED (hydrogen_sulfide_B3LYP_cc-pVTZ_OPT.scfp) ****
             **** ENERGY FILE WAS UPDATED (hydrogen_sulfide_B3LYP_cc-pVTZ_OPT.en.tmp) ****
             **** THE GBW FILE WAS UPDATED (hydrogen_sulfide_B3LYP_cc-pVTZ_OPT.gbw) ****
             **** DENSITY FILE WAS UPDATED (hydrogen_sulfide_B3LYP_cc-pVTZ_OPT.scfp) ****
----------------
ORBITAL ENERGIES
----------------

  NO   OCC          E(Eh)            E(eV) 
   0   2.0000     -88.893462     -2418.9141 
   1   2.0000      -7.946606      -216.2381 
   2   2.0000      -5.910817      -160.8415 
   3   2.0000      -5.907827      -160.7601 
   4   2.0000      -5.901477      -160.5873 
   5   2.0000      -0.739030       -20.1100 
   6   2.0000      -0.440982       -11.9997 
   7   2.0000      -0.367043        -9.9878 
   8   2.0000      -0.262095        -7.1320 
   9   0.0000       0.013237         0.3602 
  10   0.0000       0.014415         0.3923 
  11   0.0000       0.182600         4.9688 
  12   0.0000       0.220224         5.9926 
  13   0.0000       0.286825         7.8049 
  14   0.0000       0.297504         8.0955 
  15   0.0000       0.302029         8.2186 
  16   0.0000       0.328192         8.9306 
  17   0.0000       0.338151         9.2016 
  18   0.0000       0.375687        10.2230 
  19   0.0000       0.471040        12.8176 
  20   0.0000       0.614654        16.7256 
  21   0.0000       0.650504        17.7011 
  22   0.0000       0.809730        22.0339 
  23   0.0000       0.827520        22.5180 
  24   0.0000       0.880136        23.9497 
  25   0.0000       0.907404        24.6917 
  26   0.0000       1.180248        32.1162 
  27   0.0000       1.192855        32.4592 
  28   0.0000       1.500864        40.8406 
  29   0.0000       1.505890        40.9774 
  30   0.0000       1.519528        41.3485 
  31   0.0000       1.578028        42.9403 
  32   0.0000       1.614443        43.9312 
  33   0.0000       1.639036        44.6004 
  34   0.0000       1.751751        47.6676 
  35   0.0000       1.785575        48.5880 
  36   0.0000       1.836612        49.9768 
  37   0.0000       1.838700        50.0336 
  38   0.0000       1.911175        52.0057 
  39   0.0000       1.926481        52.4222 
  40   0.0000       1.971182        53.6386 
  41   0.0000       2.262590        61.5682 
  42   0.0000       2.491473        67.7964 
  43   0.0000       2.525891        68.7330 
  44   0.0000       2.628003        71.5116 
  45   0.0000       3.175086        86.3985 
  46   0.0000       3.221529        87.6622 
  47   0.0000       3.238903        88.1350 
  48   0.0000       3.371366        91.7395 
  49   0.0000       3.598685        97.9252 
  50   0.0000       3.605426        98.1086 
  51   0.0000       3.615698        98.3882 
  52   0.0000       3.623201        98.5923 
  53   0.0000       3.691145       100.4412 
  54   0.0000       3.965408       107.9042 
  55   0.0000       3.975882       108.1893 
  56   0.0000       3.999033       108.8192 
  57   0.0000       4.228375       115.0599 
  58   0.0000       4.236813       115.2896 
  59   0.0000       4.265580       116.0723 
  60   0.0000       4.828163       131.3810 
  61   0.0000       5.788815       157.5217 

                    ********************************
                    * MULLIKEN POPULATION ANALYSIS *
                    ********************************

-----------------------
MULLIKEN ATOMIC CHARGES
-----------------------
   0 S :   -0.190403
   1 H :    0.094280
   2 H :    0.096123
Sum of atomic charges:   -0.0000000

--------------------------------
MULLIKEN REDUCED ORBITAL CHARGES
--------------------------------
  0 S s       :     5.822044  s :     5.822044
      pz      :     3.955004  p :    10.289982
      px      :     3.119666
      py      :     3.215312
      dz2     :     0.013877  d :     0.072344
      dxz     :     0.000671
      dyz     :     0.001383
      dx2y2   :     0.049755
      dxy     :     0.006658
      f0      :     0.000291  f :     0.006033
      f+1     :     0.001643
      f-1     :     0.001437
      f+2     :     0.000001
      f-2     :     0.000005
      f+3     :     0.001332
      f-3     :     0.001324
  1 H s       :     0.854850  s :     0.854850
      pz      :     0.020324  p :     0.048512
      px      :     0.009865
      py      :     0.018323
      dz2     :     0.000257  d :     0.002358
      dxz     :     0.000042
      dyz     :     0.000872
      dx2y2   :     0.000599
      dxy     :     0.000588
  2 H s       :     0.852593  s :     0.852593
      pz      :     0.020479  p :     0.048912
      px      :     0.018243
      py      :     0.010191
      dz2     :     0.000264  d :     0.002373
      dxz     :     0.000914
      dyz     :     0.000016
      dx2y2   :     0.000604
      dxy     :     0.000575


                     *******************************
                     * LOEWDIN POPULATION ANALYSIS *
                     *******************************

----------------------
LOEWDIN ATOMIC CHARGES
----------------------
   0 S :    0.264412
   1 H :   -0.132125
   2 H :   -0.132287

-------------------------------
LOEWDIN REDUCED ORBITAL CHARGES
-------------------------------
  0 S s       :     5.419207  s :     5.419207
      pz      :     3.846671  p :    10.198166
      px      :     3.117541
      py      :     3.233954
      dz2     :     0.021534  d :     0.103285
      dxz     :     0.000106
      dyz     :     0.000208
      dx2y2   :     0.072207
      dxy     :     0.009231
      f0      :     0.000203  f :     0.014930
      f+1     :     0.002535
      f-1     :     0.002267
      f+2     :     0.000000
      f-2     :     0.000001
      f+3     :     0.005191
      f-3     :     0.004732
  1 H s       :     0.901494  s :     0.901494
      pz      :     0.067583  p :     0.206340
      px      :     0.031677
      py      :     0.107079
      dz2     :     0.002439  d :     0.024292
      dxz     :     0.000381
      dyz     :     0.008475
      dx2y2   :     0.008121
      dxy     :     0.004875
  2 H s       :     0.901693  s :     0.901693
      pz      :     0.067534  p :     0.206371
      px      :     0.100554
      py      :     0.038283
      dz2     :     0.002437  d :     0.024224
      dxz     :     0.008688
      dyz     :     0.000150
      dx2y2   :     0.006638
      dxy     :     0.006309


                      *****************************
                      * MAYER POPULATION ANALYSIS *
                      *****************************

  NA   - Mulliken gross atomic population
  ZA   - Total nuclear charge
  QA   - Mulliken gross atomic charge
  VA   - Mayer's total valence
  BVA  - Mayer's bonded valence
  FA   - Mayer's free valence

  ATOM       NA         ZA         QA         VA         BVA        FA
  0 S     16.1904    16.0000    -0.1904     2.0344     2.0344    -0.0000
  1 H      0.9057     1.0000     0.0943     1.0255     1.0255    -0.0000
  2 H      0.9039     1.0000     0.0961     1.0259     1.0259    -0.0000

  Mayer bond orders larger than 0.100000
B(  0-S ,  1-H ) :   1.0170 B(  0-S ,  2-H ) :   1.0174 

-------
TIMINGS
-------

Total SCF time: 0 days 0 hours 0 min 4 sec 

Total time                  ....       4.732 sec
Sum of individual times     ....       4.071 sec  ( 86.0%)

Fock matrix formation       ....       2.739 sec  ( 57.9%)
  XC integration            ....       1.146 sec  ( 41.8% of F)
    Basis function eval.    ....       0.010 sec  (  0.9% of XC)
    Density eval.           ....       0.010 sec  (  0.9% of XC)
    XC-Functional eval.     ....       0.003 sec  (  0.2% of XC)
    XC-Potential eval.      ....       0.010 sec  (  0.8% of XC)
Diagonalization             ....       0.005 sec  (  0.1%)
Density matrix formation    ....       0.009 sec  (  0.2%)
Population analysis         ....       0.001 sec  (  0.0%)
Initial guess               ....       0.062 sec  (  1.3%)
Orbital Transformation      ....       0.000 sec  (  0.0%)
Orbital Orthonormalization  ....       0.000 sec  (  0.0%)
DIIS solution               ....       0.002 sec  (  0.0%)
SOSCF solution              ....       0.040 sec  (  0.8%)
Grid generation             ....       1.214 sec  ( 25.7%)

-------------------------   --------------------
FINAL SINGLE POINT ENERGY      -399.362525616173
-------------------------   --------------------



           ************************************************************
           *        Program running with 8 parallel MPI-processes     *
           *              working on a common directory               *
           ************************************************************
------------------------------------------------------------------------------
                         ORCA SCF GRADIENT CALCULATION
------------------------------------------------------------------------------

Gradient of the Kohn-Sham DFT energy:
Kohn-Sham wavefunction type      ... RKS
Hartree-Fock exchange scaling    ...    0.200
Number of operators              ...    1
Number of atoms                  ...    3
Basis set dimensions             ...   62
Integral neglect threshold       ... 2.5e-11
Integral primitive cutoff        ... 2.5e-12

Nuclear repulsion gradient       ... done
One Electron Gradient            ... done
Pre-screening matrix             ... done
Starting the two electron gradient:
Two electron gradient done
Exchange-correlation gradient    ... done

------------------
CARTESIAN GRADIENT
------------------

   1   S   :   -0.005130971   -0.007279150    0.000000000
   2   H   :   -0.001063710    0.006155672    0.000000000
   3   H   :    0.006194681    0.001123478   -0.000000000

Difference to translation invariance:
           :    0.0000000000    0.0000000000    0.0000000000

Norm of the cartesian gradient     ...    0.0125687288
RMS gradient                       ...    0.0041895763
MAX gradient                       ...    0.0072791500

-------
TIMINGS
-------

Total SCF gradient time            ...        0.452 sec

One electron gradient       ....       0.003 sec  (  0.7%)
Prescreening matrices       ....       0.028 sec  (  6.2%)
Two electron gradient       ....       0.172 sec  ( 38.0%)
XC gradient                 ....       0.028 sec  (  6.2%)
------------------------------------------------------------------------------
                         ORCA GEOMETRY RELAXATION STEP
------------------------------------------------------------------------------

Reading the OPT-File                    .... done
Getting information on internals        .... done
Copying old internal coords+grads       .... done
Making the new internal coordinates     .... (new redundants).... done
Validating the new internal coordinates .... (new redundants).... done
Calculating the B-matrix                .... done
Calculating the G,G- and P matrices     .... done
Transforming gradient to internals      .... done
Projecting the internal gradient        .... done
Number of atoms                         ....   3
Number of internal coordinates          ....   3
Current Energy                          ....  -399.362525616 Eh
Current gradient norm                   ....     0.012568729 Eh/bohr
Maximum allowed component of the step   ....  0.300
Current trust radius                    ....  0.300
Evaluating the initial hessian          ....  (Almloef) done
Projecting the Hessian                  .... done
Forming the augmented Hessian           .... done
Diagonalizing the augmented Hessian     .... done
Last element of RFO vector              ....  0.999700944
Lowest eigenvalues of augmented Hessian:
 -0.000217090  0.332852389  0.362471926
Length of the computed step             ....  0.024461801
The final length of the internal step   ....  0.024461801
Converting the step to cartesian space:
 Initial RMS(Int)=    0.0141230275
Transforming coordinates:
 Iter   0:  RMS(Cart)=    0.0064509929 RMS(Int)=    0.0141228889
 Iter   1:  RMS(Cart)=    0.0000039336 RMS(Int)=    0.0000045863
 Iter   2:  RMS(Cart)=    0.0000000272 RMS(Int)=    0.0000000312
done
Storing new coordinates                 .... done

                                .--------------------.
          ----------------------|Geometry convergence|-------------------------
          Item                value                   Tolerance       Converged
          ---------------------------------------------------------------------
          RMS gradient        0.0051238253            0.0001000000      NO
          MAX gradient        0.0062760866            0.0003000000      NO
          RMS step            0.0141230275            0.0020000000      NO
          MAX step            0.0173084784            0.0040000000      NO
          ........................................................
          Max(Bonds)      0.0092      Max(Angles)    0.07
          Max(Dihed)        0.00      Max(Improp)    0.00
          ---------------------------------------------------------------------

The optimization has not yet converged - more geometry cycles are needed


    ---------------------------------------------------------------------------
                         Redundant Internal Coordinates
                            (Angstroem and degrees)

        Definition                    Value    dE/dq     Step     New-Value
    ----------------------------------------------------------------------------
     1. B(H   1,S   0)                1.3579  0.006263 -0.0091    1.3488   
     2. B(H   2,S   0)                1.3583  0.006276 -0.0092    1.3491   
     3. A(H   1,S   0,H   2)           92.27 -0.000387    0.07     92.34   
    ----------------------------------------------------------------------------

         *************************************************************
         *                GEOMETRY OPTIMIZATION CYCLE   2            *
         *************************************************************
---------------------------------
CARTESIAN COORDINATES (ANGSTROEM)
---------------------------------
  S     -0.057439   -0.081011    0.000000
  H     -0.312539    1.243402    0.000000
  H      1.276647    0.119829    0.000000

----------------------------
CARTESIAN COORDINATES (A.U.)
----------------------------
  NO LB      ZA    FRAG     MASS         X           Y           Z
   0 S    16.0000    0    32.060   -0.108543   -0.153088    0.000000
   1 H     1.0000    0     1.008   -0.590612    2.349690    0.000000
   2 H     1.0000    0     1.008    2.412514    0.226443    0.000000

--------------------------------
INTERNAL COORDINATES (ANGSTROEM)
--------------------------------
 S      0   0   0     0.000000000000     0.00000000     0.00000000
 H      1   0   0     1.348757453148     0.00000000     0.00000000
 H      1   2   0     1.349119070669    92.34114508     0.00000000

---------------------------
INTERNAL COORDINATES (A.U.)
---------------------------
 S      0   0   0     0.000000000000     0.00000000     0.00000000
 H      1   0   0     2.548782207535     0.00000000     0.00000000
 H      1   2   0     2.549465565614    92.34114508     0.00000000



           ************************************************************
           *        Program running with 8 parallel MPI-processes     *
           *              working on a common directory               *
           ************************************************************


           ************************************************************
           *        Program running with 8 parallel MPI-processes     *
           *              working on a common directory               *
           ************************************************************

Diagonalization of the overlap matrix:
Smallest eigenvalue                        ... 3.126e-03
Time for diagonalization                   ...    0.001 sec
Threshold for overlap eigenvalues          ... 1.000e-08
Number of eigenvalues below threshold      ... 0
Time for construction of square roots      ...    0.603 sec
Total time needed                          ...    0.604 sec

-------------------
DFT GRID GENERATION
-------------------

General Integration Accuracy     IntAcc      ...  4.340
Radial Grid Type                 RadialGrid  ... Gauss-Chebyshev
Angular Grid (max. acc.)         AngularGrid ... Lebedev-110
Angular grid pruning method      GridPruning ... 3 (G Style)
Weight generation scheme         WeightScheme... Becke
Basis function cutoff            BFCut       ...    1.0000e-11
Integration weight cutoff        WCut        ...    1.0000e-14
Grids for H and He will be reduced by one unit

# of grid points (after initial pruning)     ...   3394 (   0.0 sec)
# of grid points (after weights+screening)   ...   3370 (   0.0 sec)
nearest neighbour list constructed           ...    0.0 sec
Grid point re-assignment to atoms done       ...    0.0 sec
Grid point division into batches done        ...    0.0 sec
Reduced shell lists constructed in    0.0 sec

Total number of grid points                  ...     3370
Total number of batches                      ...       54
Average number of points per batch           ...       62
Average number of grid points per atom       ...     1123
Average number of shells per batch           ...    20.00 (83.33%)
Average number of basis functions per batch  ...    51.50 (83.06%)
Average number of large shells per batch     ...    16.38 (81.88%)
Average number of large basis fcns per batch ...    42.62 (82.77%)
Maximum spatial batch extension              ...  19.89, 16.28, 29.83 au
Average spatial batch extension              ...   1.54,  1.23,  1.88 au

Time for grid setup =    0.488 sec

--------------
SCF ITERATIONS
--------------
ITER       Energy         Delta-E        Max-DP      RMS-DP      [F,P]     Damp
               ***  Starting incremental Fock matrix formation  ***
                      *** Initiating the SOSCF procedure ***
                      *** Re-Reading the Fockian *** 
                      *** Removing any level shift *** 
ITER      Energy       Delta-E        Grad      Rot      Max-DP    RMS-DP
  0   -399.36184663 -399.3618466340  0.001813  0.001813  0.001043  0.000076
               *** Restarting incremental Fock matrix formation ***
  1   -399.36186658  -0.0000199494  0.000264  0.000688  0.000943  0.000040
  2   -399.36186767  -0.0000010895  0.000151  0.000179  0.000115  0.000008
  3   -399.36186783  -0.0000001558  0.000037  0.000047  0.000057  0.000003
  4   -399.36186784  -0.0000000131  0.000007  0.000011  0.000021  0.000001
  5   -399.36186784  -0.0000000002  0.000006  0.000006  0.000010  0.000000
                 **** Energy Check signals convergence ****
              ***Rediagonalizing the Fockian in SOSCF/NRSCF***

               *****************************************************
               *                     SUCCESS                       *
               *           SCF CONVERGED AFTER   6 CYCLES          *
               *****************************************************

Setting up the final grid:

General Integration Accuracy     IntAcc      ...  4.670
Radial Grid Type                 RadialGrid  ... Gauss-Chebyshev
Angular Grid (max. acc.)         AngularGrid ... Lebedev-302
Angular grid pruning method      GridPruning ... 3 (G Style)
Weight generation scheme         WeightScheme... Becke
Basis function cutoff            BFCut       ...    1.0000e-11
Integration weight cutoff        WCut        ...    1.0000e-14
Grids for H and He will be reduced by one unit

# of grid points (after initial pruning)     ...  13634 (   0.0 sec)
# of grid points (after weights+screening)   ...  13548 (   0.0 sec)
nearest neighbour list constructed           ...    0.0 sec
Grid point re-assignment to atoms done       ...    0.0 sec
Grid point division into batches done        ...    0.0 sec
Reduced shell lists constructed in    0.0 sec

Total number of grid points                  ...    13548
Total number of batches                      ...      213
Average number of points per batch           ...       63
Average number of grid points per atom       ...     4516
Average number of shells per batch           ...    16.04 (66.82%)
Average number of basis functions per batch  ...    40.46 (65.26%)
Average number of large shells per batch     ...    13.46 (83.96%)
Average number of large basis fcns per batch ...    33.96 (83.94%)
Maximum spatial batch extension              ...  16.14, 14.82, 19.50 au
Average spatial batch extension              ...   0.91,  0.79,  0.94 au

Final grid set up in    0.7 sec
Final integration                            ... done (   0.3 sec)
Change in XC energy                          ...    -0.000800065
Integrated number of electrons               ...    18.000003838
Previous integrated no of electrons          ...    17.997758304
Total Energy       :         -399.36266791 Eh          -10867.21067 eV
  Last Energy change         ...   -2.6739e-10  Tolerance :   1.0000e-08
  Last MAX-Density change    ...    2.3714e-07  Tolerance :   1.0000e-07
             **** THE GBW FILE WAS UPDATED (hydrogen_sulfide_B3LYP_cc-pVTZ_OPT.gbw) ****
             **** DENSITY FILE WAS UPDATED (hydrogen_sulfide_B3LYP_cc-pVTZ_OPT.scfp) ****
             **** ENERGY FILE WAS UPDATED (hydrogen_sulfide_B3LYP_cc-pVTZ_OPT.en.tmp) ****
             **** THE GBW FILE WAS UPDATED (hydrogen_sulfide_B3LYP_cc-pVTZ_OPT.gbw) ****
             **** DENSITY FILE WAS UPDATED (hydrogen_sulfide_B3LYP_cc-pVTZ_OPT.scfp) ****
Total SCF time: 0 days 0 hours 0 min 5 sec 

-------------------------   --------------------
FINAL SINGLE POINT ENERGY      -399.362667907185
-------------------------   --------------------



           ************************************************************
           *        Program running with 8 parallel MPI-processes     *
           *              working on a common directory               *
           ************************************************************
------------------------------------------------------------------------------
                         ORCA SCF GRADIENT CALCULATION
------------------------------------------------------------------------------

Gradient of the Kohn-Sham DFT energy:
Kohn-Sham wavefunction type      ... RKS
Hartree-Fock exchange scaling    ...    0.200
Number of operators              ...    1
Number of atoms                  ...    3
Basis set dimensions             ...   62
Integral neglect threshold       ... 2.5e-11
Integral primitive cutoff        ... 2.5e-12

Nuclear repulsion gradient       ... done
One Electron Gradient            ... done
Pre-screening matrix             ... done
Starting the two electron gradient:
Two electron gradient done
Exchange-correlation gradient    ... done

------------------
CARTESIAN GRADIENT
------------------

   1   S   :   -0.001644743   -0.002364065   -0.000000000
   2   H   :   -0.000195576    0.001856693    0.000000000
   3   H   :    0.001840319    0.000507372   -0.000000000

Difference to translation invariance:
           :    0.0000000000    0.0000000000    0.0000000000

Norm of the cartesian gradient     ...    0.0039273069
RMS gradient                       ...    0.0013091023
MAX gradient                       ...    0.0023640647

-------
TIMINGS
-------

Total SCF gradient time            ...        0.490 sec

One electron gradient       ....       0.004 sec  (  0.8%)
Prescreening matrices       ....       0.031 sec  (  6.3%)
Two electron gradient       ....       0.253 sec  ( 51.5%)
XC gradient                 ....       0.057 sec  ( 11.6%)
------------------------------------------------------------------------------
                         ORCA GEOMETRY RELAXATION STEP
------------------------------------------------------------------------------

Reading the OPT-File                    .... done
Getting information on internals        .... done
Copying old internal coords+grads       .... done
Making the new internal coordinates     .... (new redundants).... done
Validating the new internal coordinates .... (new redundants).... done
Calculating the B-matrix                .... done
Calculating the G,G- and P matrices     .... done
Transforming gradient to internals      .... done
Projecting the internal gradient        .... done
Number of atoms                         ....   3
Number of internal coordinates          ....   3
Current Energy                          ....  -399.362667907 Eh
Current gradient norm                   ....     0.003927307 Eh/bohr
Maximum allowed component of the step   ....  0.300
Current trust radius                    ....  0.300
Updating the Hessian (BFGS)             .... done
Forming the augmented Hessian           .... done
Diagonalizing the augmented Hessian     .... done
Last element of RFO vector              ....  0.999941834
Lowest eigenvalues of augmented Hessian:
 -0.000029130  0.250223397  0.337183276
Length of the computed step             ....  0.010786204
The final length of the internal step   ....  0.010786204
Converting the step to cartesian space:
 Initial RMS(Int)=    0.0062274177
Transforming coordinates:
 Iter   0:  RMS(Cart)=    0.0025532991 RMS(Int)=    0.0062269746
 Iter   1:  RMS(Cart)=    0.0000033509 RMS(Int)=    0.0000038081
 Iter   2:  RMS(Cart)=    0.0000000104 RMS(Int)=    0.0000000121
done
Storing new coordinates                 .... done

                                .--------------------.
          ----------------------|Geometry convergence|-------------------------
          Item                value                   Tolerance       Converged
          ---------------------------------------------------------------------
          Energy change      -0.0001422910            0.0000050000      NO
          RMS gradient        0.0015593912            0.0001000000      NO
          MAX gradient        0.0018785326            0.0003000000      NO
          RMS step            0.0062274177            0.0020000000      NO
          MAX step            0.0074860432            0.0040000000      NO
          ........................................................
          Max(Bonds)      0.0040      Max(Angles)    0.12
          Max(Dihed)        0.00      Max(Improp)    0.00
          ---------------------------------------------------------------------

The optimization has not yet converged - more geometry cycles are needed


    ---------------------------------------------------------------------------
                         Redundant Internal Coordinates
                            (Angstroem and degrees)

        Definition                    Value    dE/dq     Step     New-Value
    ----------------------------------------------------------------------------
     1. B(H   1,S   0)                1.3488  0.001877 -0.0040    1.3448   
     2. B(H   2,S   0)                1.3491  0.001879 -0.0040    1.3452   
     3. A(H   1,S   0,H   2)           92.34 -0.000493    0.12     92.46   
    ----------------------------------------------------------------------------

         *************************************************************
         *                GEOMETRY OPTIMIZATION CYCLE   3            *
         *************************************************************
---------------------------------
CARTESIAN COORDINATES (ANGSTROEM)
---------------------------------
  S     -0.055984   -0.078960    0.000000
  H     -0.311742    1.241301    0.000000
  H      1.274396    0.119879    0.000000

----------------------------
CARTESIAN COORDINATES (A.U.)
----------------------------
  NO LB      ZA    FRAG     MASS         X           Y           Z
   0 S    16.0000    0    32.060   -0.105795   -0.149212    0.000000
   1 H     1.0000    0     1.008   -0.589107    2.345719    0.000000
   2 H     1.0000    0     1.008    2.408260    0.226538    0.000000

--------------------------------
INTERNAL COORDINATES (ANGSTROEM)
--------------------------------
 S      0   0   0     0.000000000000     0.00000000     0.00000000
 H      1   0   0     1.344805039285     0.00000000     0.00000000
 H      1   2   0     1.345157627252    92.46289950     0.00000000

---------------------------
INTERNAL COORDINATES (A.U.)
---------------------------
 S      0   0   0     0.000000000000     0.00000000     0.00000000
 H      1   0   0     2.541313227765     0.00000000     0.00000000
 H      1   2   0     2.541979522462    92.46289950     0.00000000



           ************************************************************
           *        Program running with 8 parallel MPI-processes     *
           *              working on a common directory               *
           ************************************************************


           ************************************************************
           *        Program running with 8 parallel MPI-processes     *
           *              working on a common directory               *
           ************************************************************

Diagonalization of the overlap matrix:
Smallest eigenvalue                        ... 3.069e-03
Time for diagonalization                   ...    0.001 sec
Threshold for overlap eigenvalues          ... 1.000e-08
Number of eigenvalues below threshold      ... 0
Time for construction of square roots      ...    0.001 sec
Total time needed                          ...    0.002 sec

-------------------
DFT GRID GENERATION
-------------------

General Integration Accuracy     IntAcc      ...  4.340
Radial Grid Type                 RadialGrid  ... Gauss-Chebyshev
Angular Grid (max. acc.)         AngularGrid ... Lebedev-110
Angular grid pruning method      GridPruning ... 3 (G Style)
Weight generation scheme         WeightScheme... Becke
Basis function cutoff            BFCut       ...    1.0000e-11
Integration weight cutoff        WCut        ...    1.0000e-14
Grids for H and He will be reduced by one unit

# of grid points (after initial pruning)     ...   3394 (   0.0 sec)
# of grid points (after weights+screening)   ...   3370 (   0.0 sec)
nearest neighbour list constructed           ...    0.0 sec
Grid point re-assignment to atoms done       ...    0.0 sec
Grid point division into batches done        ...    0.0 sec
Reduced shell lists constructed in    0.0 sec

Total number of grid points                  ...     3370
Total number of batches                      ...       54
Average number of points per batch           ...       62
Average number of grid points per atom       ...     1123
Average number of shells per batch           ...    20.00 (83.33%)
Average number of basis functions per batch  ...    51.50 (83.06%)
Average number of large shells per batch     ...    16.38 (81.88%)
Average number of large basis fcns per batch ...    42.62 (82.77%)
Maximum spatial batch extension              ...  19.89, 16.27, 29.83 au
Average spatial batch extension              ...   1.54,  1.23,  1.88 au

Time for grid setup =    0.056 sec

--------------
SCF ITERATIONS
--------------
ITER       Energy         Delta-E        Max-DP      RMS-DP      [F,P]     Damp
               ***  Starting incremental Fock matrix formation  ***
                      *** Initiating the SOSCF procedure ***
                      *** Re-Reading the Fockian *** 
                      *** Removing any level shift *** 
ITER      Energy       Delta-E        Grad      Rot      Max-DP    RMS-DP
  0   -399.36187666 -399.3618766577  0.000782  0.000782  0.000479  0.000034
               *** Restarting incremental Fock matrix formation ***
  1   -399.36188067  -0.0000040090  0.000105  0.000274  0.000422  0.000018
  2   -399.36188090  -0.0000002295  0.000064  0.000079  0.000051  0.000004
  3   -399.36188092  -0.0000000275  0.000020  0.000025  0.000022  0.000001
  4   -399.36188093  -0.0000000031  0.000003  0.000004  0.000008  0.000000
                  ***Gradient check signals convergence***
              ***Rediagonalizing the Fockian in SOSCF/NRSCF***

               *****************************************************
               *                     SUCCESS                       *
               *           SCF CONVERGED AFTER   5 CYCLES          *
               *****************************************************

Setting up the final grid:

General Integration Accuracy     IntAcc      ...  4.670
Radial Grid Type                 RadialGrid  ... Gauss-Chebyshev
Angular Grid (max. acc.)         AngularGrid ... Lebedev-302
Angular grid pruning method      GridPruning ... 3 (G Style)
Weight generation scheme         WeightScheme... Becke
Basis function cutoff            BFCut       ...    1.0000e-11
Integration weight cutoff        WCut        ...    1.0000e-14
Grids for H and He will be reduced by one unit

# of grid points (after initial pruning)     ...  13634 (   0.0 sec)
# of grid points (after weights+screening)   ...  13548 (   0.0 sec)
nearest neighbour list constructed           ...    0.0 sec
Grid point re-assignment to atoms done       ...    0.0 sec
Grid point division into batches done        ...    0.0 sec
Reduced shell lists constructed in    0.0 sec

Total number of grid points                  ...    13548
Total number of batches                      ...      213
Average number of points per batch           ...       63
Average number of grid points per atom       ...     4516
Average number of shells per batch           ...    16.07 (66.96%)
Average number of basis functions per batch  ...    40.64 (65.55%)
Average number of large shells per batch     ...    13.46 (83.78%)
Average number of large basis fcns per batch ...    33.96 (83.57%)
Maximum spatial batch extension              ...  16.14, 14.82, 19.50 au
Average spatial batch extension              ...   0.91,  0.79,  0.93 au

Final grid set up in    0.3 sec
Final integration                            ... done (   0.2 sec)
Change in XC energy                          ...    -0.000801488
Integrated number of electrons               ...    18.000003660
Previous integrated no of electrons          ...    17.997825870
Total Energy       :         -399.36268241 Eh          -10867.21107 eV
  Last Energy change         ...   -1.7394e-11  Tolerance :   1.0000e-08
  Last MAX-Density change    ...    4.1462e-06  Tolerance :   1.0000e-07
             **** THE GBW FILE WAS UPDATED (hydrogen_sulfide_B3LYP_cc-pVTZ_OPT.gbw) ****
             **** DENSITY FILE WAS UPDATED (hydrogen_sulfide_B3LYP_cc-pVTZ_OPT.scfp) ****
             **** ENERGY FILE WAS UPDATED (hydrogen_sulfide_B3LYP_cc-pVTZ_OPT.en.tmp) ****
             **** THE GBW FILE WAS UPDATED (hydrogen_sulfide_B3LYP_cc-pVTZ_OPT.gbw) ****
             **** DENSITY FILE WAS UPDATED (hydrogen_sulfide_B3LYP_cc-pVTZ_OPT.scfp) ****
Total SCF time: 0 days 0 hours 0 min 2 sec 

-------------------------   --------------------
FINAL SINGLE POINT ENERGY      -399.362682414957
-------------------------   --------------------



           ************************************************************
           *        Program running with 8 parallel MPI-processes     *
           *              working on a common directory               *
           ************************************************************
------------------------------------------------------------------------------
                         ORCA SCF GRADIENT CALCULATION
------------------------------------------------------------------------------

Gradient of the Kohn-Sham DFT energy:
Kohn-Sham wavefunction type      ... RKS
Hartree-Fock exchange scaling    ...    0.200
Number of operators              ...    1
Number of atoms                  ...    3
Basis set dimensions             ...   62
Integral neglect threshold       ... 2.5e-11
Integral primitive cutoff        ... 2.5e-12

Nuclear repulsion gradient       ... done
One Electron Gradient            ... done
Pre-screening matrix             ... done
Starting the two electron gradient:
Two electron gradient done
Exchange-correlation gradient    ... done

------------------
CARTESIAN GRADIENT
------------------

   1   S   :   -0.000005299   -0.000049376   -0.000000000
   2   H   :    0.000083361   -0.000076434    0.000000000
   3   H   :   -0.000078062    0.000125811   -0.000000000

Difference to translation invariance:
           :    0.0000000000    0.0000000000   -0.0000000000

Norm of the cartesian gradient     ...    0.0001928198
RMS gradient                       ...    0.0000642733
MAX gradient                       ...    0.0001258108

-------
TIMINGS
-------

Total SCF gradient time            ...        0.700 sec

One electron gradient       ....       0.007 sec  (  1.0%)
Prescreening matrices       ....       0.031 sec  (  4.4%)
Two electron gradient       ....       0.178 sec  ( 25.5%)
XC gradient                 ....       0.273 sec  ( 39.0%)
------------------------------------------------------------------------------
                         ORCA GEOMETRY RELAXATION STEP
------------------------------------------------------------------------------

Reading the OPT-File                    .... done
Getting information on internals        .... done
Copying old internal coords+grads       .... done
Making the new internal coordinates     .... (new redundants).... done
Validating the new internal coordinates .... (new redundants).... done
Calculating the B-matrix                .... done
Calculating the G,G- and P matrices     .... done
Transforming gradient to internals      .... done
Projecting the internal gradient        .... done
Number of atoms                         ....   3
Number of internal coordinates          ....   3
Current Energy                          ....  -399.362682415 Eh
Current gradient norm                   ....     0.000192820 Eh/bohr
Maximum allowed component of the step   ....  0.300
Current trust radius                    ....  0.300
Updating the Hessian (BFGS)             .... done
Forming the augmented Hessian           .... done
Diagonalizing the augmented Hessian     .... done
Last element of RFO vector              ....  0.999999677
Lowest eigenvalues of augmented Hessian:
 -0.000000224  0.246266985  0.349292100
Length of the computed step             ....  0.000803913
The final length of the internal step   ....  0.000803913
Converting the step to cartesian space:
 Initial RMS(Int)=    0.0004641394
Transforming coordinates:
 Iter   0:  RMS(Cart)=    0.0004085894 RMS(Int)=    0.0004641585
 Iter   1:  RMS(Cart)=    0.0000000619 RMS(Int)=    0.0000001522
done
Storing new coordinates                 .... done

                                .--------------------.
          ----------------------|Geometry convergence|-------------------------
          Item                value                   Tolerance       Converged
          ---------------------------------------------------------------------
          Energy change      -0.0000145078            0.0000050000      NO
          RMS gradient        0.0001611415            0.0001000000      NO
          MAX gradient        0.0002583106            0.0003000000      YES
          RMS step            0.0004641394            0.0020000000      YES
          MAX step            0.0007570625            0.0040000000      YES
          ........................................................
          Max(Bonds)      0.0001      Max(Angles)    0.04
          Max(Dihed)        0.00      Max(Improp)    0.00
          ---------------------------------------------------------------------

       The step convergence is overachieved with 
       reasonable convergence on the gradient
       Convergence will therefore be signaled now


                    ***********************HURRAY********************
                    ***        THE OPTIMIZATION HAS CONVERGED     ***
                    *************************************************


    ---------------------------------------------------------------------------
                         Redundant Internal Coordinates

                          --- Optimized Parameters ---  
                            (Angstroem and degrees)

        Definition                    OldVal   dE/dq     Step     FinalVal
    ----------------------------------------------------------------------------
     1. B(H   1,S   0)                1.3448 -0.000074  0.0001    1.3449   
     2. B(H   2,S   0)                1.3452 -0.000075  0.0001    1.3453   
     3. A(H   1,S   0,H   2)           92.46 -0.000258    0.04     92.51   
    ----------------------------------------------------------------------------
                 *******************************************************
                 *** FINAL ENERGY EVALUATION AT THE STATIONARY POINT ***
                 ***               (AFTER    3 CYCLES)               ***
                 *******************************************************
---------------------------------
CARTESIAN COORDINATES (ANGSTROEM)
---------------------------------
  S     -0.055870   -0.078797    0.000000
  H     -0.312146    1.241465    0.000000
  H      1.274687    0.119552    0.000000

----------------------------
CARTESIAN COORDINATES (A.U.)
----------------------------
  NO LB      ZA    FRAG     MASS         X           Y           Z
   0 S    16.0000    0    32.060   -0.105579   -0.148905    0.000000
   1 H     1.0000    0     1.008   -0.589871    2.346029    0.000000
   2 H     1.0000    0     1.008    2.408808    0.225921    0.000000

--------------------------------
INTERNAL COORDINATES (ANGSTROEM)
--------------------------------
 S      0   0   0     0.000000000000     0.00000000     0.00000000
 H      1   0   0     1.344905231196     0.00000000     0.00000000
 H      1   2   0     1.345259807628    92.50627599     0.00000000

---------------------------
INTERNAL COORDINATES (A.U.)
---------------------------
 S      0   0   0     0.000000000000     0.00000000     0.00000000
 H      1   0   0     2.541502563039     0.00000000     0.00000000
 H      1   2   0     2.542172615389    92.50627599     0.00000000

---------------------
BASIS SET INFORMATION
---------------------
There are 2 groups of distinct atoms

 Group   1 Type S   : 41s16p2d1f contracted to 5s4p2d1f pattern {13131311/7711/11/1}
 Group   2 Type H   : 5s2p1d contracted to 3s2p1d pattern {311/11/1}

Atom   0S    basis set group =>   1
Atom   1H    basis set group =>   2
Atom   2H    basis set group =>   2


           ************************************************************
           *        Program running with 8 parallel MPI-processes     *
           *              working on a common directory               *
           ************************************************************
------------------------------------------------------------------------------
                           ORCA GTO INTEGRAL CALCULATION
------------------------------------------------------------------------------

                         BASIS SET STATISTICS AND STARTUP INFO

 # of primitive gaussian shells          ...   76
 # of primitive gaussian functions       ...  138
 # of contracted shells                  ...   24
 # of contracted basis functions         ...   62
 Highest angular momentum                ...    3
 Maximum contraction depth               ...   13
 Integral package used                   ... LIBINT
 Integral threshhold            Thresh   ...  2.500e-11
 Primitive cut-off              TCut     ...  2.500e-12


------------------------------ INTEGRAL EVALUATION ----------------------------


 * One electron integrals 
 Pre-screening matrix                    ... done
 Shell pair data                         ... done (   0.000 sec)



           ************************************************************
           *        Program running with 8 parallel MPI-processes     *
           *              working on a common directory               *
           ************************************************************
-------------------------------------------------------------------------------
                                 ORCA SCF
-------------------------------------------------------------------------------

------------
SCF SETTINGS
------------
Hamiltonian:
 Density Functional     Method          .... DFT(GTOs)
 Exchange Functional    Exchange        .... B88
   X-Alpha parameter    XAlpha          ....  0.666667
   Becke's b parameter  XBeta           ....  0.004200
 Correlation Functional Correlation     .... LYP
 LDA part of GGA corr.  LDAOpt          .... VWN-5
 Gradients option       PostSCFGGA      .... off
 Hybrid DFT is turned on
   Fraction HF Exchange ScalHFX         ....  0.200000
   Scaling of DF-GGA-X  ScalDFX         ....  0.720000
   Scaling of DF-GGA-C  ScalDFC         ....  0.810000
   Scaling of DF-LDA-C  ScalLDAC        ....  1.000000
   Perturbative correction              ....  0.000000
   Density functional embedding theory  .... OFF
   NL short-range parameter             ....  4.800000


General Settings:
 Integral files         IntName         .... hydrogen_sulfide_B3LYP_cc-pVTZ_OPT
 Hartree-Fock type      HFTyp           .... RHF
 Total Charge           Charge          ....    0
 Multiplicity           Mult            ....    1
 Number of Electrons    NEL             ....   18
 Basis Dimension        Dim             ....   62
 Nuclear Repulsion      ENuc            ....     12.8616148616 Eh

Convergence Acceleration:
 DIIS                   CNVDIIS         .... on
   Start iteration      DIISMaxIt       ....    12
   Startup error        DIISStart       ....  0.200000
   # of expansion vecs  DIISMaxEq       ....     5
   Bias factor          DIISBfac        ....   1.050
   Max. coefficient     DIISMaxC        ....  10.000
 Newton-Raphson         CNVNR           .... off
 SOSCF                  CNVSOSCF        .... on
   Start iteration      SOSCFMaxIt      ....   150
   Startup grad/error   SOSCFStart      ....  0.003300
 Level Shifting         CNVShift        .... on
   Level shift para.    LevelShift      ....    0.2500
   Turn off err/grad.   ShiftErr        ....    0.0010
 Zerner damping         CNVZerner       .... off
 Static damping         CNVDamp         .... on
   Fraction old density DampFac         ....    0.7000
   Max. Damping (<1)    DampMax         ....    0.9800
   Min. Damping (>=0)   DampMin         ....    0.0000
   Turn off err/grad.   DampErr         ....    0.1000
 Fernandez-Rico         CNVRico         .... off

SCF Procedure:
 Maximum # iterations   MaxIter         ....   125
 SCF integral mode      SCFMode         .... Direct
   Integral package                     .... LIBINT
 Reset frequency        DirectResetFreq ....    20
 Integral Threshold     Thresh          ....  2.500e-11 Eh
 Primitive CutOff       TCut            ....  2.500e-12 Eh

Convergence Tolerance:
 Convergence Check Mode ConvCheckMode   .... Total+1el-Energy
 Convergence forced     ConvForced      .... 0
 Energy Change          TolE            ....  1.000e-08 Eh
 1-El. energy change                    ....  1.000e-05 Eh
 Orbital Gradient       TolG            ....  1.000e-05
 Orbital Rotation angle TolX            ....  1.000e-05
 DIIS Error             TolErr          ....  5.000e-07


Diagonalization of the overlap matrix:
Smallest eigenvalue                        ... 3.071e-03
Time for diagonalization                   ...    0.001 sec
Threshold for overlap eigenvalues          ... 1.000e-08
Number of eigenvalues below threshold      ... 0
Time for construction of square roots      ...    0.001 sec
Total time needed                          ...    0.002 sec

---------------------
INITIAL GUESS: MOREAD
---------------------
Guess MOs are being read from file: hydrogen_sulfide_B3LYP_cc-pVTZ_OPT.gbw
Input Geometry matches current geometry (good)
Input basis set matches current basis set (good)
MOs were renormalized
MOs were reorthogonalized (Cholesky)
                      ------------------
                      INITIAL GUESS DONE (   0.0 sec)
                      ------------------
-------------------
DFT GRID GENERATION
-------------------

General Integration Accuracy     IntAcc      ...  4.340
Radial Grid Type                 RadialGrid  ... Gauss-Chebyshev
Angular Grid (max. acc.)         AngularGrid ... Lebedev-110
Angular grid pruning method      GridPruning ... 3 (G Style)
Weight generation scheme         WeightScheme... Becke
Basis function cutoff            BFCut       ...    1.0000e-11
Integration weight cutoff        WCut        ...    1.0000e-14
Grids for H and He will be reduced by one unit

# of grid points (after initial pruning)     ...   3394 (   0.0 sec)
# of grid points (after weights+screening)   ...   3370 (   0.0 sec)
nearest neighbour list constructed           ...    0.0 sec
Grid point re-assignment to atoms done       ...    0.0 sec
Grid point division into batches done        ...    0.0 sec
Reduced shell lists constructed in    0.0 sec

Total number of grid points                  ...     3370
Total number of batches                      ...       54
Average number of points per batch           ...       62
Average number of grid points per atom       ...     1123
Average number of shells per batch           ...    20.00 (83.33%)
Average number of basis functions per batch  ...    51.50 (83.06%)
Average number of large shells per batch     ...    16.38 (81.88%)
Average number of large basis fcns per batch ...    42.62 (82.77%)
Maximum spatial batch extension              ...  19.89, 16.27, 29.83 au
Average spatial batch extension              ...   1.54,  1.23,  1.88 au

Time for grid setup =    0.056 sec

--------------
SCF ITERATIONS
--------------
ITER       Energy         Delta-E        Max-DP      RMS-DP      [F,P]     Damp
               ***  Starting incremental Fock matrix formation  ***
                      *** Initiating the SOSCF procedure ***
                      *** Re-Reading the Fockian *** 
                      *** Removing any level shift *** 
ITER      Energy       Delta-E        Grad      Rot      Max-DP    RMS-DP
  0   -399.36188156 -399.3618815563  0.000115  0.000115  0.000039  0.000002
               *** Restarting incremental Fock matrix formation ***
  1   -399.36188157  -0.0000000161  0.000010  0.000016  0.000020  0.000001
  2   -399.36188157  -0.0000000009  0.000004  0.000005  0.000006  0.000000
                  ***Gradient check signals convergence***
              ***Rediagonalizing the Fockian in SOSCF/NRSCF***

               *****************************************************
               *                     SUCCESS                       *
               *           SCF CONVERGED AFTER   3 CYCLES          *
               *****************************************************

Setting up the final grid:

General Integration Accuracy     IntAcc      ...  4.670
Radial Grid Type                 RadialGrid  ... Gauss-Chebyshev
Angular Grid (max. acc.)         AngularGrid ... Lebedev-302
Angular grid pruning method      GridPruning ... 3 (G Style)
Weight generation scheme         WeightScheme... Becke
Basis function cutoff            BFCut       ...    1.0000e-11
Integration weight cutoff        WCut        ...    1.0000e-14
Grids for H and He will be reduced by one unit

# of grid points (after initial pruning)     ...  13634 (   0.0 sec)
# of grid points (after weights+screening)   ...  13548 (   0.0 sec)
nearest neighbour list constructed           ...    0.0 sec
Grid point re-assignment to atoms done       ...    0.0 sec
Grid point division into batches done        ...    0.0 sec
Reduced shell lists constructed in    0.0 sec

Total number of grid points                  ...    13548
Total number of batches                      ...      213
Average number of points per batch           ...       63
Average number of grid points per atom       ...     4516
Average number of shells per batch           ...    16.07 (66.96%)
Average number of basis functions per batch  ...    40.64 (65.55%)
Average number of large shells per batch     ...    13.46 (83.78%)
Average number of large basis fcns per batch ...    33.96 (83.57%)
Maximum spatial batch extension              ...  16.14, 14.82, 19.50 au
Average spatial batch extension              ...   0.91,  0.79,  0.93 au

Final grid set up in    0.1 sec
Final integration                            ... done (   0.4 sec)
Change in XC energy                          ...    -0.000800990
Integrated number of electrons               ...    18.000003652
Previous integrated no of electrons          ...    17.997824492

----------------
TOTAL SCF ENERGY
----------------

Total Energy       :         -399.36268256 Eh          -10867.21107 eV

Components:
Nuclear Repulsion  :           12.86161486 Eh             349.98233 eV
Electronic Energy  :         -412.22429742 Eh          -11217.19340 eV
One Electron Energy:         -576.64232513 Eh          -15691.23539 eV
Two Electron Energy:          164.41802771 Eh            4474.04199 eV

Virial components:
Potential Energy   :         -797.61386339 Eh          -21704.17664 eV
Kinetic Energy     :          398.25118083 Eh           10836.96557 eV
Virial Ratio       :            2.00279096


DFT components:
N(Alpha)           :        9.000001826058 electrons
N(Beta)            :        9.000001826058 electrons
N(Total)           :       18.000003652116 electrons
E(X)               :      -20.380210150468 Eh       
E(C)               :       -0.824111393700 Eh       
E(XC)              :      -21.204321544168 Eh       
DFET-embed. en.    :        0.000000000000 Eh       

---------------
SCF CONVERGENCE
---------------

  Last Energy change         ...   -5.7980e-11  Tolerance :   1.0000e-08
  Last MAX-Density change    ...    3.1319e-06  Tolerance :   1.0000e-07
  Last RMS-Density change    ...    1.2738e-07  Tolerance :   5.0000e-09
  Last Orbital Gradient      ...    2.2253e-06  Tolerance :   1.0000e-05
  Last Orbital Rotation      ...    1.9259e-06  Tolerance :   1.0000e-05

             **** THE GBW FILE WAS UPDATED (hydrogen_sulfide_B3LYP_cc-pVTZ_OPT.gbw) ****
             **** DENSITY FILE WAS UPDATED (hydrogen_sulfide_B3LYP_cc-pVTZ_OPT.scfp) ****
             **** ENERGY FILE WAS UPDATED (hydrogen_sulfide_B3LYP_cc-pVTZ_OPT.en.tmp) ****
             **** THE GBW FILE WAS UPDATED (hydrogen_sulfide_B3LYP_cc-pVTZ_OPT.gbw) ****
             **** DENSITY FILE WAS UPDATED (hydrogen_sulfide_B3LYP_cc-pVTZ_OPT.scfp) ****
----------------
ORBITAL ENERGIES
----------------

  NO   OCC          E(Eh)            E(eV) 
   0   2.0000     -88.891796     -2418.8687 
   1   2.0000      -7.945561      -216.2097 
   2   2.0000      -5.909729      -160.8119 
   3   2.0000      -5.906689      -160.7292 
   4   2.0000      -5.900441      -160.5592 
   5   2.0000      -0.741747       -20.1840 
   6   2.0000      -0.444049       -12.0832 
   7   2.0000      -0.367156        -9.9908 
   8   2.0000      -0.262307        -7.1377 
   9   0.0000       0.016029         0.4362 
  10   0.0000       0.016948         0.4612 
  11   0.0000       0.181628         4.9424 
  12   0.0000       0.219916         5.9842 
  13   0.0000       0.286808         7.8045 
  14   0.0000       0.297309         8.0902 
  15   0.0000       0.303297         8.2531 
  16   0.0000       0.327985         8.9249 
  17   0.0000       0.338325         9.2063 
  18   0.0000       0.377083        10.2610 
  19   0.0000       0.473074        12.8730 
  20   0.0000       0.615130        16.7386 
  21   0.0000       0.655247        17.8302 
  22   0.0000       0.813821        22.1452 
  23   0.0000       0.830518        22.5995 
  24   0.0000       0.884230        24.0611 
  25   0.0000       0.912700        24.8358 
  26   0.0000       1.181076        32.1387 
  27   0.0000       1.199505        32.6402 
  28   0.0000       1.499507        40.8036 
  29   0.0000       1.504947        40.9517 
  30   0.0000       1.518573        41.3225 
  31   0.0000       1.580931        43.0193 
  32   0.0000       1.614040        43.9203 
  33   0.0000       1.647260        44.8242 
  34   0.0000       1.752670        47.6926 
  35   0.0000       1.784562        48.5604 
  36   0.0000       1.838672        50.0328 
  37   0.0000       1.840424        50.0805 
  38   0.0000       1.917342        52.1735 
  39   0.0000       1.927379        52.4466 
  40   0.0000       1.975138        53.7462 
  41   0.0000       2.252868        61.3037 
  42   0.0000       2.498855        67.9973 
  43   0.0000       2.532580        68.9150 
  44   0.0000       2.635546        71.7168 
  45   0.0000       3.176037        86.4244 
  46   0.0000       3.224260        87.7366 
  47   0.0000       3.242495        88.2328 
  48   0.0000       3.381665        92.0198 
  49   0.0000       3.604093        98.0724 
  50   0.0000       3.618856        98.4741 
  51   0.0000       3.629110        98.7531 
  52   0.0000       3.634327        98.8951 
  53   0.0000       3.713611       101.0525 
  54   0.0000       3.976549       108.2074 
  55   0.0000       3.989736       108.5662 
  56   0.0000       4.011805       109.1668 
  57   0.0000       4.249280       115.6288 
  58   0.0000       4.249977       115.6477 
  59   0.0000       4.283264       116.5535 
  60   0.0000       4.850736       131.9952 
  61   0.0000       5.837808       158.8548 

                    ********************************
                    * MULLIKEN POPULATION ANALYSIS *
                    ********************************

-----------------------
MULLIKEN ATOMIC CHARGES
-----------------------
   0 S :   -0.195146
   1 H :    0.096416
   2 H :    0.098730
Sum of atomic charges:    0.0000000

--------------------------------
MULLIKEN REDUCED ORBITAL CHARGES
--------------------------------
  0 S s       :     5.818109  s :     5.818109
      pz      :     3.953750  p :    10.296622
      px      :     3.122952
      py      :     3.219921
      dz2     :     0.014153  d :     0.074214
      dxz     :     0.000694
      dyz     :     0.001427
      dx2y2   :     0.051127
      dxy     :     0.006812
      f0      :     0.000293  f :     0.006200
      f+1     :     0.001688
      f-1     :     0.001466
      f+2     :     0.000001
      f-2     :     0.000006
      f+3     :     0.001384
      f-3     :     0.001363
  1 H s       :     0.852175  s :     0.852175
      pz      :     0.020876  p :     0.049028
      px      :     0.010102
      py      :     0.018051
      dz2     :     0.000250  d :     0.002381
      dxz     :     0.000044
      dyz     :     0.000902
      dx2y2   :     0.000578
      dxy     :     0.000607
  2 H s       :     0.849425  s :     0.849425
      pz      :     0.021047  p :     0.049448
      px      :     0.017998
      py      :     0.010403
      dz2     :     0.000258  d :     0.002397
      dxz     :     0.000946
      dyz     :     0.000016
      dx2y2   :     0.000588
      dxy     :     0.000589


                     *******************************
                     * LOEWDIN POPULATION ANALYSIS *
                     *******************************

----------------------
LOEWDIN ATOMIC CHARGES
----------------------
   0 S :    0.278968
   1 H :   -0.139405
   2 H :   -0.139563

-------------------------------
LOEWDIN REDUCED ORBITAL CHARGES
-------------------------------
  0 S s       :     5.405644  s :     5.405644
      pz      :     3.840720  p :    10.195212
      px      :     3.118005
      py      :     3.236486
      dz2     :     0.021755  d :     0.104812
      dxz     :     0.000107
      dyz     :     0.000210
      dx2y2   :     0.073331
      dxy     :     0.009410
      f0      :     0.000231  f :     0.015365
      f+1     :     0.002582
      f-1     :     0.002296
      f+2     :     0.000000
      f-2     :     0.000001
      f+3     :     0.005392
      f-3     :     0.004863
  1 H s       :     0.902367  s :     0.902367
      pz      :     0.070127  p :     0.211830
      px      :     0.033013
      py      :     0.108690
      dz2     :     0.002487  d :     0.025208
      dxz     :     0.000408
      dyz     :     0.008855
      dx2y2   :     0.008331
      dxy     :     0.005127
  2 H s       :     0.902519  s :     0.902519
      pz      :     0.070096  p :     0.211904
      px      :     0.102008
      py      :     0.039799
      dz2     :     0.002486  d :     0.025140
      dxz     :     0.009094
      dyz     :     0.000152
      dx2y2   :     0.006797
      dxy     :     0.006611


                      *****************************
                      * MAYER POPULATION ANALYSIS *
                      *****************************

  NA   - Mulliken gross atomic population
  ZA   - Total nuclear charge
  QA   - Mulliken gross atomic charge
  VA   - Mayer's total valence
  BVA  - Mayer's bonded valence
  FA   - Mayer's free valence

  ATOM       NA         ZA         QA         VA         BVA        FA
  0 S     16.1951    16.0000    -0.1951     2.0356     2.0356    -0.0000
  1 H      0.9036     1.0000     0.0964     1.0262     1.0262    -0.0000
  2 H      0.9013     1.0000     0.0987     1.0266     1.0266    -0.0000

  Mayer bond orders larger than 0.100000
B(  0-S ,  1-H ) :   1.0176 B(  0-S ,  2-H ) :   1.0180 

-------
TIMINGS
-------

Total SCF time: 0 days 0 hours 0 min 2 sec 

Total time                  ....       2.091 sec
Sum of individual times     ....       1.821 sec  ( 87.1%)

Fock matrix formation       ....       1.434 sec  ( 68.6%)
  XC integration            ....       0.660 sec  ( 46.0% of F)
    Basis function eval.    ....       0.005 sec  (  0.7% of XC)
    Density eval.           ....       0.004 sec  (  0.7% of XC)
    XC-Functional eval.     ....       0.001 sec  (  0.2% of XC)
    XC-Potential eval.      ....       0.004 sec  (  0.6% of XC)
Diagonalization             ....       0.001 sec  (  0.0%)
Density matrix formation    ....       0.174 sec  (  8.3%)
Population analysis         ....       0.001 sec  (  0.1%)
Initial guess               ....       0.001 sec  (  0.1%)
Orbital Transformation      ....       0.000 sec  (  0.0%)
Orbital Orthonormalization  ....       0.001 sec  (  0.0%)
DIIS solution               ....       0.000 sec  (  0.0%)
SOSCF solution              ....       0.021 sec  (  1.0%)
Grid generation             ....       0.188 sec  (  9.0%)

-------------------------   --------------------
FINAL SINGLE POINT ENERGY      -399.362682563180
-------------------------   --------------------

                                *** OPTIMIZATION RUN DONE ***

                            ***************************************
                            *     ORCA property calculations      *
                            ***************************************

                                    ---------------------
                                    Active property flags
                                    ---------------------
   (+) Dipole Moment


------------------------------------------------------------------------------
                       ORCA ELECTRIC PROPERTIES CALCULATION
------------------------------------------------------------------------------

Dipole Moment Calculation                       ... on
Quadrupole Moment Calculation                   ... off
Polarizability Calculation                      ... off
GBWName                                         ... hydrogen_sulfide_B3LYP_cc-pVTZ_OPT.gbw
Electron density file                           ... hydrogen_sulfide_B3LYP_cc-pVTZ_OPT.scfp
The origin for moment calculation is the CENTER OF MASS  = (-0.045527, -0.064015  0.000000)

-------------
DIPOLE MOMENT
-------------
                                X             Y             Z
Electronic contribution:     -0.70136      -0.99165      -0.00000
Nuclear contribution   :      0.94916       1.34174       0.00000
                        -----------------------------------------
Total Dipole Moment    :      0.24780       0.35009      -0.00000
                        -----------------------------------------
Magnitude (a.u.)       :      0.42892
Magnitude (Debye)      :      1.09022



--------------------
Rotational spectrum 
--------------------
 
Rotational constants in cm-1:    10.274075     8.856266     4.756316 
Rotational constants in MHz : 308009.030306 265504.168051 142590.757419 

 Dipole components along the rotational axes: 
x,y,z [a.u.] :    -0.000937     0.428914    -0.000000 
x,y,z [Debye]:    -0.002381     1.090214    -0.000000 

 

Timings for individual modules:

Sum of individual times         ...       22.769 sec (=   0.379 min)
GTO integral calculation        ...        4.179 sec (=   0.070 min)  18.4 %
SCF iterations                  ...       16.062 sec (=   0.268 min)  70.5 %
SCF Gradient evaluation         ...        2.147 sec (=   0.036 min)   9.4 %
Geometry relaxation             ...        0.381 sec (=   0.006 min)   1.7 %
                             ****ORCA TERMINATED NORMALLY****
TOTAL RUN TIME: 0 days 0 hours 0 minutes 24 seconds 691 msec
