
                                 *****************
                                 * O   R   C   A *
                                 *****************

                                            #,                                       
                                            ###                                      
                                            ####                                     
                                            #####                                    
                                            ######                                   
                                           ########,                                 
                                     ,,################,,,,,                         
                               ,,#################################,,                 
                          ,,##########################################,,             
                       ,#########################################, ''#####,          
                    ,#############################################,,   '####,        
                  ,##################################################,,,,####,       
                ,###########''''           ''''###############################       
              ,#####''   ,,,,##########,,,,          '''####'''          '####       
            ,##' ,,,,###########################,,,                        '##       
           ' ,,###''''                  '''############,,,                           
         ,,##''                                '''############,,,,        ,,,,,,###''
      ,#''                                            '''#######################'''  
     '                                                          ''''####''''         
             ,#######,   #######,   ,#######,      ##                                
            ,#'     '#,  ##    ##  ,#'     '#,    #''#        ######   ,####,        
            ##       ##  ##   ,#'  ##            #'  '#       #        #'  '#        
            ##       ##  #######   ##           ,######,      #####,   #    #        
            '#,     ,#'  ##    ##  '#,     ,#' ,#      #,         ##   #,  ,#        
             '#######'   ##     ##  '#######'  #'      '#     #####' # '####'        



                  #######################################################
                  #                        -***-                        #
                  #          Department of theory and spectroscopy      #
                  #    Directorship and core code : Frank Neese         #
                  #        Max Planck Institute fuer Kohlenforschung    #
                  #                Kaiser Wilhelm Platz 1               #
                  #                 D-45470 Muelheim/Ruhr               #
                  #                      Germany                        #
                  #                                                     #
                  #                  All rights reserved                #
                  #                        -***-                        #
                  #######################################################


                         Program Version 5.0.1 -  RELEASE  -


 With contributions from (in alphabetic order):
   Daniel Aravena         : Magnetic Suceptibility
   Michael Atanasov       : Ab Initio Ligand Field Theory (pilot matlab implementation)
   Alexander A. Auer      : GIAO ZORA, VPT2 properties, NMR spectrum
   Ute Becker             : Parallelization
   Giovanni Bistoni       : ED, misc. LED, open-shell LED, HFLD
   Martin Brehm           : Molecular dynamics
   Dmytro Bykov           : SCF Hessian
   Vijay G. Chilkuri      : MRCI spin determinant printing, contributions to CSF-ICE
   Dipayan Datta          : RHF DLPNO-CCSD density
   Achintya Kumar Dutta   : EOM-CC, STEOM-CC
   Dmitry Ganyushin       : Spin-Orbit,Spin-Spin,Magnetic field MRCI
   Miquel Garcia          : C-PCM and meta-GGA Hessian, CC/C-PCM, Gaussian charge scheme
   Yang Guo               : DLPNO-NEVPT2, F12-NEVPT2, CIM, IAO-localization
   Andreas Hansen         : Spin unrestricted coupled pair/coupled cluster methods
   Benjamin Helmich-Paris : MC-RPA, TRAH-SCF, COSX integrals
   Lee Huntington         : MR-EOM, pCC
   Robert Izsak           : Overlap fitted RIJCOSX, COSX-SCS-MP3, EOM
   Marcus Kettner         : VPT2
   Christian Kollmar      : KDIIS, OOCD, Brueckner-CCSD(T), CCSD density, CASPT2, CASPT2-K
   Simone Kossmann        : Meta GGA functionals, TD-DFT gradient, OOMP2, MP2 Hessian
   Martin Krupicka        : Initial AUTO-CI
   Lucas Lang             : DCDCAS
   Marvin Lechner         : AUTO-CI (C++ implementation), FIC-MRCC
   Dagmar Lenk            : GEPOL surface, SMD
   Dimitrios Liakos       : Extrapolation schemes; Compound Job, initial MDCI parallelization
   Dimitrios Manganas     : Further ROCIS development; embedding schemes
   Dimitrios Pantazis     : SARC Basis sets
   Anastasios Papadopoulos: AUTO-CI, single reference methods and gradients
   Taras Petrenko         : DFT Hessian,TD-DFT gradient, ASA, ECA, R-Raman, ABS, FL, XAS/XES, NRVS
   Peter Pinski           : DLPNO-MP2, DLPNO-MP2 Gradient
   Christoph Reimann      : Effective Core Potentials
   Marius Retegan         : Local ZFS, SOC
   Christoph Riplinger    : Optimizer, TS searches, QM/MM, DLPNO-CCSD(T), (RO)-DLPNO pert. Triples
   Tobias Risthaus        : Range-separated hybrids, TD-DFT gradient, RPA, STAB
   Michael Roemelt        : Original ROCIS implementation
   Masaaki Saitow         : Open-shell DLPNO-CCSD energy and density
   Barbara Sandhoefer     : DKH picture change effects
   Avijit Sen             : IP-ROCIS
   Kantharuban Sivalingam : CASSCF convergence, NEVPT2, FIC-MRCI
   Bernardo de Souza      : ESD, SOC TD-DFT
   Georgi Stoychev        : AutoAux, RI-MP2 NMR, DLPNO-MP2 response
   Willem Van den Heuvel  : Paramagnetic NMR
   Boris Wezisla          : Elementary symmetry handling
   Frank Wennmohs         : Technical directorship


 We gratefully acknowledge several colleagues who have allowed us to
 interface, adapt or use parts of their codes:
   Stefan Grimme, W. Hujo, H. Kruse, P. Pracht,  : VdW corrections, initial TS optimization,
                  C. Bannwarth, S. Ehlert          DFT functionals, gCP, sTDA/sTD-DF
   Ed Valeev, F. Pavosevic, A. Kumar             : LibInt (2-el integral package), F12 methods
   Garnet Chan, S. Sharma, J. Yang, R. Olivares  : DMRG
   Ulf Ekstrom                                   : XCFun DFT Library
   Mihaly Kallay                                 : mrcc  (arbitrary order and MRCC methods)
   Jiri Pittner, Ondrej Demel                    : Mk-CCSD
   Frank Weinhold                                : gennbo (NPA and NBO analysis)
   Christopher J. Cramer and Donald G. Truhlar   : smd solvation model
   Lars Goerigk                                  : TD-DFT with DH, B97 family of functionals
   V. Asgeirsson, H. Jonsson                     : NEB implementation
   FAccTs GmbH                                   : IRC, NEB, NEB-TS, DLPNO-Multilevel, CI-OPT
                                                   MM, QMMM, 2- and 3-layer-ONIOM, Crystal-QMMM,
                                                   LR-CPCM, SF, NACMEs, symmetry and pop. for TD-DFT,
                                                   nearIR, NL-DFT gradient (VV10), updates on ESD,
                                                   ML-optimized integration grids
   S Lehtola, MJT Oliveira, MAL Marques          : LibXC Library
   Liviu Ungur et al                             : ANISO software


 Your calculation uses the libint2 library for the computation of 2-el integrals
 For citations please refer to: http://libint.valeyev.net

 Your ORCA version has been built with support for libXC version: 5.1.0
 For citations please refer to: https://tddft.org/programs/libxc/

 This ORCA versions uses:
   CBLAS   interface :  Fast vector & matrix operations
   LAPACKE interface :  Fast linear algebra routines
   SCALAPACK package :  Parallel linear algebra routines
   Shared memory     :  Shared parallel matrices
   BLAS/LAPACK       :  OpenBLAS 0.3.15  USE64BITINT DYNAMIC_ARCH NO_AFFINITY Zen SINGLE_THREADED
        Core in use  :  Zen
   Copyright (c) 2011-2014, The OpenBLAS Project




***************************************
The coordinates will be read from file: dimethyl_ether.xyz
***************************************


================================================================================

----- Orbital basis set information -----
Your calculation utilizes the basis: aug-cc-pVTZ 
    H, B-Ne : Obtained from the ccRepo (grant-hill.group.shef.ac.uk/ccrepo) Feb. 2017
              R. A. Kendall, T. H. Dunning, Jr., R. J. Harrison, J. Chem. Phys. 96, 6796 (1992)
         He : Obtained from the ccRepo (grant-hill.group.shef.ac.uk/ccrepo) Feb. 2017
              D. E. Woon, T. H. Dunning, Jr., J. Chem. Phys. 100, 2975 (1994)
  Li-Be, Na : Obtained from the ccRepo (grant-hill.group.shef.ac.uk/ccrepo) Feb. 2017
              B. P. Prascher, D. E. Woon, K. A. Peterson, T. H. Dunning, Jr., A. K. Wilson, Theor. Chem. Acc. 128, 69 (2011)
         Mg : Obtained from the Peterson Research Group Website (tyr0.chem.wsu.edu/~kipeters) Feb. 2017
              B. P. Prascher, D. E. Woon, K. A. Peterson, T. H. Dunning, Jr., A. K. Wilson, Theor. Chem. Acc. 128, 69 (2011)
      Al-Ar : Obtained from the ccRepo (grant-hill.group.shef.ac.uk/ccrepo) Feb. 2017
              D. E. Woon, T. H. Dunning, Jr., J. Chem. Phys. 98, 1358 (1993)
      Sc-Zn : Obtained from the ccRepo (grant-hill.group.shef.ac.uk/ccrepo) Feb. 2017
              N. B. Balabanov, K. A. Peterson, J. Chem. Phys. 123, 064107 (2005)
              N. B. Balabanov, K. A. Peterson, J. Chem. Phys. 125, 074110 (2006)
      Ga-Kr : Obtained from the ccRepo (grant-hill.group.shef.ac.uk/ccrepo) Feb. 2017
              A. K. Wilson, D. E. Woon, K. A. Peterson, T. H. Dunning, Jr., J. Chem. Phys. 110, 7667 (1999)
     Ag, Au : Obtained from the Peterson Research Group Website (tyr0.chem.wsu.edu/~kipeters) Feb. 2017
              K. A. Peterson, C. Puzzarini, Theor. Chem. Acc. 114, 283 (2005)

----- AuxJ basis set information -----
Your calculation utilizes the auxiliary basis: def2/J
   F. Weigend, Phys. Chem. Chem. Phys. 8, 1057 (2006).

----- AuxC basis set information -----
Your calculation utilizes the auxiliary basis: aug-cc-pVTZ/C 
  H-He, B-F, Al-Ar, Ga-Kr : Obtained from the EMSL Basis Set Exchange (bse.pnl.gov) Feb. 2017
                            F. Weigend, A. Kohn, C. Hattig, J. Chem. Phys. 116, 3175 (2002)
                   Be, Mg : Obtained from the TURBOMOLE 7.0 basis set library
                            C. Haettig, Phys. Chem. Chem. Phys. 7, 59 (2005)
                       Ne : Obtained from the EMSL Basis Set Exchange (bse.pnl.gov) Feb. 2017
                            C. Haettig, Phys. Chem. Chem. Phys. 7, 59 (2005)
                            F. Weigend, A. Kohn, C. Hattig, J. Chem. Phys. 116, 3175 (2002)
                    Sc-Zn : Obtained from the EMSL Basis Set Exchange (bse.pnl.gov) Feb. 2017
                            J. G. Hill, J. A. Platts, J. Chem. Phys. 128, 044104 (2008)

================================================================================
                                        WARNINGS
                       Please study these warnings very carefully!
================================================================================


WARNING: Post HF methods need fully converged wavefunctions
  ===> : Setting SCFConvForced true
         You can overwrite this default with %scf ConvForced false 


WARNING: MDCI localization with Augmented Hessian Foster-Boys
  ===> : Switching off randomization!

INFO   : the flag for use of the SHARK integral package has been found!

================================================================================
                                       INPUT FILE
================================================================================
NAME = dimethyl_ether_DLPNO_CCSD.inp
|  1> 
|  2> %pal
|  3>   nprocs 6
|  4> end
|  5> %maxcore 2000
|  6> 
|  7> ! DLPNO-CCSD aug-cc-pVTZ VeryTightSCF
|  8> ! RIJCOSX def2/J aug-cc-pVTZ/C
|  9> ! TightPNO
| 10> 
| 11> %mdci
| 12>   density unrelaxed
| 13> end
| 14> 
| 15> * xyzfile 0 1 dimethyl_ether.xyz
| 16> 
| 17> 
| 18>                          ****END OF INPUT****
================================================================================

                       ****************************
                       * Single Point Calculation *
                       ****************************

---------------------------------
CARTESIAN COORDINATES (ANGSTROEM)
---------------------------------
  C      1.421150    0.000215   -0.000736
  O      0.022185    0.015743    0.027526
  C     -0.474248    0.669427    1.160610
  H      1.836379    1.018259   -0.021558
  H      1.729003   -0.524689   -0.905319
  H      1.837060   -0.522263    0.872917
  H     -0.149575    0.174382    2.087263
  H     -1.562882    0.642173    1.108511
  H     -0.145733    1.718173    1.198445

----------------------------
CARTESIAN COORDINATES (A.U.)
----------------------------
  NO LB      ZA    FRAG     MASS         X           Y           Z
   0 C     6.0000    0    12.011    2.685585    0.000406   -0.001390
   1 O     8.0000    0    15.999    0.041924    0.029750    0.052017
   2 C     6.0000    0    12.011   -0.896199    1.265034    2.193234
   3 H     1.0000    0     1.008    3.470253    1.924231   -0.040739
   4 H     1.0000    0     1.008    3.267343   -0.991519   -1.710806
   5 H     1.0000    0     1.008    3.471541   -0.986933    1.649575
   6 H     1.0000    0     1.008   -0.282656    0.329534    3.944355
   7 H     1.0000    0     1.008   -2.953419    1.213531    2.094783
   8 H     1.0000    0     1.008   -0.275396    3.246876    2.264734

--------------------------------
INTERNAL COORDINATES (ANGSTROEM)
--------------------------------
 C      0   0   0     0.000000000000     0.00000000     0.00000000
 O      1   0   0     1.399336625636     0.00000000     0.00000000
 C      2   1   0     1.399152111844   112.10199194     0.00000000
 H      1   2   3     1.099664526417   111.56795727   299.28890117
 H      1   2   3     1.090215495972   107.72228818   179.85692367
 H      1   2   3     1.099651558904   111.55202430    60.41602938
 H      3   2   1     1.099622094356   111.55273464   299.27404469
 H      3   2   1     1.090220594111   107.69289295   179.83641784
 H      3   2   1     1.099645738361   111.55784511    60.39928352

---------------------------
INTERNAL COORDINATES (A.U.)
---------------------------
 C      0   0   0     0.000000000000     0.00000000     0.00000000
 O      1   0   0     2.644362991618     0.00000000     0.00000000
 C      2   1   0     2.644014311082   112.10199194     0.00000000
 H      1   2   3     2.078064794116   111.56795727   299.28890117
 H      1   2   3     2.060208714345   107.72228818   179.85692367
 H      1   2   3     2.078040289068   111.55202430    60.41602938
 H      3   2   1     2.077984609142   111.55273464   299.27404469
 H      3   2   1     2.060218348431   107.69289295   179.83641784
 H      3   2   1     2.078029289835   111.55784511    60.39928352

---------------------
BASIS SET INFORMATION
---------------------
There are 3 groups of distinct atoms

 Group   1 Type C   : 19s6p3d2f contracted to 5s4p3d2f pattern {88111/3111/111/11}
 Group   2 Type O   : 19s6p3d2f contracted to 5s4p3d2f pattern {88111/3111/111/11}
 Group   3 Type H   : 6s3p2d contracted to 4s3p2d pattern {3111/111/11}

Atom   0C    basis set group =>   1
Atom   1O    basis set group =>   2
Atom   2C    basis set group =>   1
Atom   3H    basis set group =>   3
Atom   4H    basis set group =>   3
Atom   5H    basis set group =>   3
Atom   6H    basis set group =>   3
Atom   7H    basis set group =>   3
Atom   8H    basis set group =>   3
---------------------------------
AUXILIARY/J BASIS SET INFORMATION
---------------------------------
There are 3 groups of distinct atoms

 Group   1 Type C   : 12s5p4d2f1g contracted to 6s4p3d1f1g pattern {711111/2111/211/2/1}
 Group   2 Type O   : 12s5p4d2f1g contracted to 6s4p3d1f1g pattern {711111/2111/211/2/1}
 Group   3 Type H   : 5s2p1d contracted to 3s1p1d pattern {311/2/1}

Atom   0C    basis set group =>   1
Atom   1O    basis set group =>   2
Atom   2C    basis set group =>   1
Atom   3H    basis set group =>   3
Atom   4H    basis set group =>   3
Atom   5H    basis set group =>   3
Atom   6H    basis set group =>   3
Atom   7H    basis set group =>   3
Atom   8H    basis set group =>   3
---------------------------------
AUXILIARY/C BASIS SET INFORMATION
---------------------------------
There are 3 groups of distinct atoms

 Group   1 Type C   : 9s7p6d4f2g contracted to 9s7p6d4f2g pattern {111111111/1111111/111111/1111/11}
 Group   2 Type O   : 9s7p6d4f2g contracted to 9s7p6d4f2g pattern {111111111/1111111/111111/1111/11}
 Group   3 Type H   : 5s4p3d2f contracted to 5s4p3d2f pattern {11111/1111/111/11}

Atom   0C    basis set group =>   1
Atom   1O    basis set group =>   2
Atom   2C    basis set group =>   1
Atom   3H    basis set group =>   3
Atom   4H    basis set group =>   3
Atom   5H    basis set group =>   3
Atom   6H    basis set group =>   3
Atom   7H    basis set group =>   3
Atom   8H    basis set group =>   3


           ************************************************************
           *        Program running with 6 parallel MPI-processes     *
           *              working on a common directory               *
           ************************************************************
------------------------------------------------------------------------------
                           ORCA GTO INTEGRAL CALCULATION
                           -- RI-GTO INTEGRALS CHOSEN --
------------------------------------------------------------------------------
------------------------------------------------------------------------------
                   ___                                                        
                  /   \      - P O W E R E D   B Y -                         
                 /     \                                                     
                 |  |  |   _    _      __       _____    __    __             
                 |  |  |  | |  | |    /  \     |  _  \  |  |  /  |          
                  \  \/   | |  | |   /    \    | | | |  |  | /  /          
                 / \  \   | |__| |  /  /\  \   | |_| |  |  |/  /          
                |  |  |   |  __  | /  /__\  \  |    /   |      \           
                |  |  |   | |  | | |   __   |  |    \   |  |\   \          
                \     /   | |  | | |  |  |  |  | |\  \  |  | \   \       
                 \___/    |_|  |_| |__|  |__|  |_| \__\ |__|  \__/        
                                                                              
                      - O R C A' S   B I G   F R I E N D -                    
                                      &                                       
                       - I N T E G R A L  F E E D E R -                       
                                                                              
 v1 FN, 2020, v2 2021                                                         
------------------------------------------------------------------------------


Reading SHARK input file dimethyl_ether_DLPNO_CCSD.SHARKINP.tmp ... ok
----------------------
SHARK INTEGRAL PACKAGE
----------------------

Number of atoms                             ...      9
Number of basis functions                   ...    276
Number of shells                            ...     96
Maximum angular momentum                    ...      3
Integral batch strategy                     ... SHARK/LIBINT Hybrid
RI-J (if used) integral strategy            ... SPLIT-RIJ (Revised 2003 algorithm where possible)
Printlevel                                  ...      1
Contraction scheme used                     ... SEGMENTED contraction
Coulomb Range Separation                    ... NOT USED
Exchange Range Separation                   ... NOT USED
Finite Nucleus Model                        ... NOT USED
Auxiliary Coulomb fitting basis             ... AVAILABLE
   # of basis functions in Aux-J            ...    213
   # of shells in Aux-J                     ...     75
   Maximum angular momentum in Aux-J        ...      4
Auxiliary J/K fitting basis                 ... NOT available
Auxiliary Correlation fitting basis         ... AVAILABLE
   # of basis functions in Aux-C            ...    594
   # of shells in Aux-C                     ...    168
   Maximum angular momentum in Aux-C        ...      4
Auxiliary 'external' fitting basis          ... NOT available
Integral threshold                          ...     1.000000e-12
Primitive cut-off                           ...     1.000000e-14
Primitive pair pre-selection threshold      ...     1.000000e-14

Calculating pre-screening integrals         ... done (  0.0 sec) Dimension = 96
Organizing shell pair data                  ... done (  0.0 sec)
Shell pair information
Total number of shell pairs                 ...      4656
Shell pairs after pre-screening             ...      4652
Total number of primitive shell pairs       ...     12441
Primitive shell pairs kept                  ...     11115
          la=0 lb=0:    779 shell pairs
          la=1 lb=0:   1168 shell pairs
          la=1 lb=1:    464 shell pairs
          la=2 lb=0:    819 shell pairs
          la=2 lb=1:    630 shell pairs
          la=2 lb=2:    231 shell pairs
          la=3 lb=0:    234 shell pairs
          la=3 lb=1:    180 shell pairs
          la=3 lb=2:    126 shell pairs
          la=3 lb=3:     21 shell pairs

Calculating one electron integrals          ... done (  0.0 sec)
Calculating RI/J V-Matrix + Cholesky decomp.... done (  0.0 sec)
Calculating RI/C V-Matrix + Cholesky decomp.... done (  0.0 sec)
Calculating Nuclear repulsion               ... done (  0.0 sec) ENN=     84.344340593251 Eh

SHARK setup successfully completed in   0.1 seconds

Maximum memory used throughout the entire GTOINT-calculation: 17.5 MB


           ************************************************************
           *        Program running with 6 parallel MPI-processes     *
           *              working on a common directory               *
           ************************************************************
-------------------------------------------------------------------------------
                                 ORCA SCF
-------------------------------------------------------------------------------

------------
SCF SETTINGS
------------
Hamiltonian:
 Ab initio Hamiltonian  Method          .... Hartree-Fock(GTOs)
 RI-approximation to the Coulomb term is turned on
   Number of AuxJ basis functions       .... 213
   RIJ-COSX (HFX calculated with COS-X)).... on


General Settings:
 Integral files         IntName         .... dimethyl_ether_DLPNO_CCSD
 Hartree-Fock type      HFTyp           .... RHF
 Total Charge           Charge          ....    0
 Multiplicity           Mult            ....    1
 Number of Electrons    NEL             ....   26
 Basis Dimension        Dim             ....  276
 Nuclear Repulsion      ENuc            ....     84.3443405933 Eh

Convergence Acceleration:
 DIIS                   CNVDIIS         .... on
   Start iteration      DIISMaxIt       ....    12
   Startup error        DIISStart       ....  0.200000
   # of expansion vecs  DIISMaxEq       ....     5
   Bias factor          DIISBfac        ....   1.050
   Max. coefficient     DIISMaxC        ....  10.000
 Trust-Rad. Augm. Hess. CNVTRAH         .... auto
   Auto Start mean grad. ratio tolernc. ....  1.125000
   Auto Start start iteration           ....    20
   Auto Start num. interpolation iter.  ....    10
   Max. Number of Micro iterations      ....    16
   Max. Number of Macro iterations      .... Maxiter - #DIIS iter
   Number of Davidson start vectors     ....     2
   Converg. threshold I  (grad. norm)   ....   2.000e-06
   Converg. threshold II (energy diff.) ....   1.000e-09
   Grad. Scal. Fac. for Micro threshold ....   0.100
   Minimum threshold for Micro iter.    ....   0.010
   NR start threshold (gradient norm)   ....   0.001
   Initial trust radius                 ....   0.400
   Minimum AH scaling param. (alpha)    ....   1.000
   Maximum AH scaling param. (alpha)    .... 1000.000
   Orbital update algorithm             .... Taylor
   White noise on init. David. guess    .... on
   Maximum white noise                  ....   0.010
   Quad. conv. algorithm                .... NR
 SOSCF                  CNVSOSCF        .... on
   Start iteration      SOSCFMaxIt      ....   150
   Startup grad/error   SOSCFStart      ....  0.003300
 Level Shifting         CNVShift        .... on
   Level shift para.    LevelShift      ....    0.2500
   Turn off err/grad.   ShiftErr        ....    0.0010
 Zerner damping         CNVZerner       .... off
 Static damping         CNVDamp         .... on
   Fraction old density DampFac         ....    0.7000
   Max. Damping (<1)    DampMax         ....    0.9800
   Min. Damping (>=0)   DampMin         ....    0.0000
   Turn off err/grad.   DampErr         ....    0.1000
 Fernandez-Rico         CNVRico         .... off

SCF Procedure:
 Maximum # iterations   MaxIter         ....   125
 SCF integral mode      SCFMode         .... Direct
   Integral package                     .... SHARK and LIBINT hybrid scheme
 Reset frequency        DirectResetFreq ....    20
 Integral Threshold     Thresh          ....  1.000e-12 Eh
 Primitive CutOff       TCut            ....  1.000e-14 Eh

Convergence Tolerance:
 Convergence Check Mode ConvCheckMode   .... Total+1el-Energy
 Convergence forced     ConvForced      .... 1
 Energy Change          TolE            ....  1.000e-09 Eh
 1-El. energy change                    ....  1.000e-06 Eh
 Orbital Gradient       TolG            ....  2.000e-06
 Orbital Rotation angle TolX            ....  2.000e-06
 DIIS Error             TolErr          ....  1.000e-08


Diagonalization of the overlap matrix:
Smallest eigenvalue                        ... 2.736e-05
Time for diagonalization                   ...    0.007 sec
Threshold for overlap eigenvalues          ... 1.000e-08
Number of eigenvalues below threshold      ... 0
Time for construction of square roots      ...    0.003 sec
Total time needed                          ...    0.011 sec

Time for model grid setup =    0.027 sec

------------------------------
INITIAL GUESS: MODEL POTENTIAL
------------------------------
Loading Hartree-Fock densities                     ... done
Calculating cut-offs                               ... done
Initializing the effective Hamiltonian             ... done
Setting up the integral package (SHARK)            ... done
Starting the Coulomb interaction                   ... done (   0.0 sec)
Reading the grid                                   ... done
Mapping shells                                     ... done
Starting the XC term evaluation                    ... done (   0.0 sec)
Transforming the Hamiltonian                       ... done (   0.0 sec)
Diagonalizing the Hamiltonian                      ... done (   0.0 sec)
Back transforming the eigenvectors                 ... done (   0.0 sec)
Now organizing SCF variables                       ... done
                      ------------------
                      INITIAL GUESS DONE (   0.1 sec)
                      ------------------
--------------------
COSX GRID GENERATION
--------------------

GRIDX 1
-------
General Integration Accuracy     IntAcc      ... 3.816
Radial Grid Type                 RadialGrid  ... OptM3 with GC (2021)
Angular Grid (max. ang.)         AngularGrid ... 1 (Lebedev-50)
Angular grid pruning method      GridPruning ... 4 (adaptive)
Weight generation scheme         WeightScheme... Becke
Basis function cutoff            BFCut       ... 1.0000e-12
Integration weight cutoff        WCut        ... 1.0000e-14
Angular grids for H and He will be reduced by one unit
Partially contracted basis set               ... on
Rotationally invariant grid construction     ... off

Total number of grid points                  ...     5006
Total number of batches                      ...       83
Average number of points per batch           ...       60
Average number of grid points per atom       ...      556
UseSFitting                                  ... on

GRIDX 2
-------
General Integration Accuracy     IntAcc      ... 4.020
Radial Grid Type                 RadialGrid  ... OptM3 with GC (2021)
Angular Grid (max. ang.)         AngularGrid ... 2 (Lebedev-110)
Angular grid pruning method      GridPruning ... 4 (adaptive)
Weight generation scheme         WeightScheme... Becke
Basis function cutoff            BFCut       ... 1.0000e-12
Integration weight cutoff        WCut        ... 1.0000e-14
Angular grids for H and He will be reduced by one unit
Partially contracted basis set               ... on
Rotationally invariant grid construction     ... off

Total number of grid points                  ...    11881
Total number of batches                      ...      191
Average number of points per batch           ...       62
Average number of grid points per atom       ...     1320
UseSFitting                                  ... on

GRIDX 3
-------
General Integration Accuracy     IntAcc      ... 4.338
Radial Grid Type                 RadialGrid  ... OptM3 with GC (2021)
Angular Grid (max. ang.)         AngularGrid ... 3 (Lebedev-194)
Angular grid pruning method      GridPruning ... 4 (adaptive)
Weight generation scheme         WeightScheme... Becke
Basis function cutoff            BFCut       ... 1.0000e-12
Integration weight cutoff        WCut        ... 1.0000e-14
Angular grids for H and He will be reduced by one unit
Partially contracted basis set               ... on
Rotationally invariant grid construction     ... off

Total number of grid points                  ...    27009
Total number of batches                      ...      426
Average number of points per batch           ...       63
Average number of grid points per atom       ...     3001
UseSFitting                                  ... on

Time for X-Grid setup             =    0.198 sec

 re-compute Schwartz prescreening matrix in partically contracted basis (1) ...done (   0.062 sec)
--------------
SCF ITERATIONS
--------------
ITER       Energy         Delta-E        Max-DP      RMS-DP      [F,P]     Damp
               ***  Starting incremental Fock matrix formation  ***
  0   -153.9797144055   0.000000000000 0.02744643  0.00058461  0.2099646 0.7000
  1   -154.0309337402  -0.051219334744 0.02021014  0.00043987  0.1454870 0.7000
                               ***Turning on DIIS***
  2   -154.0625532006  -0.031619460414 0.01474737  0.00030804  0.1094493 0.7000
  3   -154.4569524278  -0.394399227213 0.03734330  0.00078433  0.0812827 0.0000
  4   -154.1017166229   0.355235804948 0.00450684  0.00011361  0.0056480 0.0000
                      *** Initiating the SOSCF procedure ***
                           *** Shutting down DIIS ***
                      *** Re-Reading the Fockian *** 
                      *** Removing any level shift *** 
ITER      Energy       Delta-E        Grad      Rot      Max-DP    RMS-DP
  5   -154.12752341  -0.0258067844  0.001129  0.001129  0.001736  0.000040
               *** Restarting incremental Fock matrix formation ***
  6   -154.12909119  -0.0015677825  0.000340  0.000314  0.002794  0.000041
  7   -154.12909590  -0.0000047112  0.000127  0.000203  0.000619  0.000014
  8   -154.12909647  -0.0000005670  0.000045  0.000041  0.000541  0.000007
  9   -154.12909665  -0.0000001796  0.000008  0.000007  0.000039  0.000001
 10   -154.12909666  -0.0000000103  0.000003  0.000002  0.000012  0.000000
 11   -154.12909666   0.0000000024  0.000001  0.000001  0.000003  0.000000
                 **** Energy Check signals convergence ****
              ***Rediagonalizing the Fockian in SOSCF/NRSCF***

               *****************************************************
               *                     SUCCESS                       *
               *           SCF CONVERGED AFTER  12 CYCLES          *
               *****************************************************

Old exchange energy                            =    -20.770698470 Eh
New exchange energy                            =    -20.770826716 Eh
Exchange energy change after final integration =     -0.000128246 Eh
Total energy after final integration           =   -154.129224901 Eh
Final COS-X integration done in                =     1.589 sec

----------------
TOTAL SCF ENERGY
----------------

Total Energy       :         -154.12922490 Eh           -4194.06943 eV

Components:
Nuclear Repulsion  :           84.34434059 Eh            2295.12619 eV
Electronic Energy  :         -238.47356549 Eh           -6489.19562 eV
One Electron Energy:         -376.42859919 Eh          -10243.14294 eV
Two Electron Energy:          137.95503369 Eh            3753.94731 eV
Max COSX asymmetry :            0.00000756 Eh               0.00021 eV

Virial components:
Potential Energy   :         -308.04214508 Eh           -8382.25291 eV
Kinetic Energy     :          153.91292018 Eh            4188.18348 eV
Virial Ratio       :            2.00140537


---------------
SCF CONVERGENCE
---------------

  Last Energy change         ...    5.5536e-10  Tolerance :   1.0000e-09
  Last MAX-Density change    ...    1.9984e-15  Tolerance :   1.0000e-08
  Last RMS-Density change    ...    1.2192e-17  Tolerance :   1.0000e-09
  Last Orbital Gradient      ...    9.6436e-08  Tolerance :   2.0000e-06
  Last Orbital Rotation      ...    1.4976e-07  Tolerance :   2.0000e-06

             **** THE GBW FILE WAS UPDATED (dimethyl_ether_DLPNO_CCSD.gbw) ****
             **** DENSITY dimethyl_ether_DLPNO_CCSD.scfp WAS UPDATED ****
             **** ENERGY FILE WAS UPDATED (dimethyl_ether_DLPNO_CCSD.en.tmp) ****
             **** THE GBW FILE WAS UPDATED (dimethyl_ether_DLPNO_CCSD.gbw) ****
             **** DENSITY dimethyl_ether_DLPNO_CCSD.scfp WAS UPDATED ****
----------------
ORBITAL ENERGIES
----------------

  NO   OCC          E(Eh)            E(eV) 
   0   2.0000     -20.557622      -559.4013 
   1   2.0000     -11.269392      -306.6558 
   2   2.0000     -11.269347      -306.6545 
   3   2.0000      -1.380749       -37.5721 
   4   2.0000      -0.970221       -26.4011 
   5   2.0000      -0.872820       -23.7506 
   6   2.0000      -0.661733       -18.0067 
   7   2.0000      -0.653233       -17.7754 
   8   2.0000      -0.643796       -17.5186 
   9   2.0000      -0.548173       -14.9166 
  10   2.0000      -0.526071       -14.3151 
  11   2.0000      -0.482034       -13.1168 
  12   2.0000      -0.423947       -11.5362 
  13   0.0000       0.031048         0.8448 
  14   0.0000       0.041182         1.1206 
  15   0.0000       0.046317         1.2603 
  16   0.0000       0.047926         1.3041 
  17   0.0000       0.063401         1.7252 
  18   0.0000       0.065517         1.7828 
  19   0.0000       0.089884         2.4459 
  20   0.0000       0.118954         3.2369 
  21   0.0000       0.123569         3.3625 
  22   0.0000       0.129604         3.5267 
  23   0.0000       0.140465         3.8223 
  24   0.0000       0.144050         3.9198 
  25   0.0000       0.149600         4.0708 
  26   0.0000       0.174612         4.7514 
  27   0.0000       0.175112         4.7650 
  28   0.0000       0.201764         5.4903 
  29   0.0000       0.227850         6.2001 
  30   0.0000       0.229010         6.2317 
  31   0.0000       0.230965         6.2849 
  32   0.0000       0.244246         6.6463 
  33   0.0000       0.249281         6.7833 
  34   0.0000       0.300389         8.1740 
  35   0.0000       0.304361         8.2821 
  36   0.0000       0.314753         8.5649 
  37   0.0000       0.317493         8.6394 
  38   0.0000       0.319323         8.6892 
  39   0.0000       0.327165         8.9026 
  40   0.0000       0.341042         9.2802 
  41   0.0000       0.345005         9.3881 
  42   0.0000       0.363506         9.8915 
  43   0.0000       0.368388        10.0243 
  44   0.0000       0.369466        10.0537 
  45   0.0000       0.374536        10.1917 
  46   0.0000       0.382381        10.4051 
  47   0.0000       0.408078        11.1044 
  48   0.0000       0.409077        11.1316 
  49   0.0000       0.427354        11.6289 
  50   0.0000       0.436297        11.8723 
  51   0.0000       0.438749        11.9390 
  52   0.0000       0.449800        12.2397 
  53   0.0000       0.458192        12.4680 
  54   0.0000       0.459083        12.4923 
  55   0.0000       0.477602        12.9962 
  56   0.0000       0.478621        13.0239 
  57   0.0000       0.485766        13.2184 
  58   0.0000       0.490785        13.3549 
  59   0.0000       0.496158        13.5012 
  60   0.0000       0.507061        13.7978 
  61   0.0000       0.540015        14.6946 
  62   0.0000       0.540796        14.7158 
  63   0.0000       0.571278        15.5453 
  64   0.0000       0.574518        15.6334 
  65   0.0000       0.609519        16.5859 
  66   0.0000       0.615179        16.7399 
  67   0.0000       0.678337        18.4585 
  68   0.0000       0.693850        18.8806 
  69   0.0000       0.699171        19.0254 
  70   0.0000       0.755982        20.5713 
  71   0.0000       0.783041        21.3076 
  72   0.0000       0.788629        21.4597 
  73   0.0000       0.801116        21.7995 
  74   0.0000       0.804395        21.8887 
  75   0.0000       0.810787        22.0626 
  76   0.0000       0.833677        22.6855 
  77   0.0000       0.841193        22.8900 
  78   0.0000       0.844061        22.9681 
  79   0.0000       0.853601        23.2277 
  80   0.0000       0.888471        24.1765 
  81   0.0000       0.889375        24.2011 
  82   0.0000       0.912263        24.8239 
  83   0.0000       0.923049        25.1174 
  84   0.0000       0.927786        25.2463 
  85   0.0000       0.937679        25.5155 
  86   0.0000       0.960872        26.1467 
  87   0.0000       0.960996        26.1500 
  88   0.0000       0.977449        26.5978 
  89   0.0000       0.993827        27.0434 
  90   0.0000       0.996745        27.1228 
  91   0.0000       1.018755        27.7217 
  92   0.0000       1.027937        27.9716 
  93   0.0000       1.054331        28.6898 
  94   0.0000       1.083802        29.4918 
  95   0.0000       1.088874        29.6298 
  96   0.0000       1.090453        29.6727 
  97   0.0000       1.093667        29.7602 
  98   0.0000       1.104210        30.0471 
  99   0.0000       1.123851        30.5815 
 100   0.0000       1.144047        31.1311 
 101   0.0000       1.156876        31.4802 
 102   0.0000       1.179547        32.0971 
 103   0.0000       1.183843        32.2140 
 104   0.0000       1.187595        32.3161 
 105   0.0000       1.198729        32.6191 
 106   0.0000       1.210262        32.9329 
 107   0.0000       1.224460        33.3192 
 108   0.0000       1.236663        33.6513 
 109   0.0000       1.238249        33.6945 
 110   0.0000       1.238543        33.7025 
 111   0.0000       1.295202        35.2442 
 112   0.0000       1.306918        35.5630 
 113   0.0000       1.320140        35.9228 
 114   0.0000       1.357301        36.9340 
 115   0.0000       1.406783        38.2805 
 116   0.0000       1.416224        38.5374 
 117   0.0000       1.434638        39.0385 
 118   0.0000       1.451090        39.4862 
 119   0.0000       1.489560        40.5330 
 120   0.0000       1.504503        40.9396 
 121   0.0000       1.513231        41.1771 
 122   0.0000       1.573348        42.8130 
 123   0.0000       1.583395        43.0864 
 124   0.0000       1.599158        43.5153 
 125   0.0000       1.607484        43.7419 
 126   0.0000       1.626028        44.2465 
 127   0.0000       1.631348        44.3912 
 128   0.0000       1.660500        45.1845 
 129   0.0000       1.678674        45.6790 
 130   0.0000       1.694708        46.1154 
 131   0.0000       1.702053        46.3152 
 132   0.0000       1.703663        46.3590 
 133   0.0000       1.726221        46.9729 
 134   0.0000       1.733368        47.1673 
 135   0.0000       1.734031        47.1854 
 136   0.0000       1.787551        48.6417 
 137   0.0000       1.799797        48.9750 
 138   0.0000       1.835326        49.9417 
 139   0.0000       1.867324        50.8125 
 140   0.0000       1.893901        51.5357 
 141   0.0000       1.901033        51.7297 
 142   0.0000       1.913928        52.0806 
 143   0.0000       1.947091        52.9830 
 144   0.0000       1.993976        54.2588 
 145   0.0000       2.004448        54.5438 
 146   0.0000       2.005952        54.5847 
 147   0.0000       2.031789        55.2878 
 148   0.0000       2.106599        57.3235 
 149   0.0000       2.107888        57.3586 
 150   0.0000       2.159776        58.7705 
 151   0.0000       2.171118        59.0791 
 152   0.0000       2.181974        59.3745 
 153   0.0000       2.189406        59.5768 
 154   0.0000       2.198981        59.8373 
 155   0.0000       2.251362        61.2627 
 156   0.0000       2.302315        62.6492 
 157   0.0000       2.309948        62.8569 
 158   0.0000       2.396193        65.2037 
 159   0.0000       2.420158        65.8559 
 160   0.0000       2.586173        70.3733 
 161   0.0000       2.600622        70.7665 
 162   0.0000       2.697186        73.3942 
 163   0.0000       2.725120        74.1543 
 164   0.0000       2.740840        74.5820 
 165   0.0000       2.744994        74.6951 
 166   0.0000       2.799001        76.1647 
 167   0.0000       2.870792        78.1182 
 168   0.0000       2.906675        79.0946 
 169   0.0000       3.012274        81.9681 
 170   0.0000       3.052346        83.0586 
 171   0.0000       3.066423        83.4416 
 172   0.0000       3.138326        85.3982 
 173   0.0000       3.155486        85.8651 
 174   0.0000       3.176067        86.4252 
 175   0.0000       3.284229        89.3684 
 176   0.0000       3.355780        91.3154 
 177   0.0000       3.389217        92.2253 
 178   0.0000       3.419657        93.0536 
 179   0.0000       3.441254        93.6413 
 180   0.0000       3.570471        97.1574 
 181   0.0000       3.588513        97.6484 
 182   0.0000       3.593368        97.7805 
 183   0.0000       3.620960        98.5313 
 184   0.0000       3.621681        98.5509 
 185   0.0000       3.701358       100.7191 
 186   0.0000       3.706843       100.8683 
 187   0.0000       3.723682       101.3265 
 188   0.0000       3.735978       101.6611 
 189   0.0000       3.771796       102.6358 
 190   0.0000       3.782010       102.9137 
 191   0.0000       3.819194       103.9255 
 192   0.0000       3.848189       104.7145 
 193   0.0000       3.889414       105.8363 
 194   0.0000       3.894834       105.9838 
 195   0.0000       3.959558       107.7450 
 196   0.0000       3.975415       108.1765 
 197   0.0000       3.996424       108.7482 
 198   0.0000       4.005255       108.9885 
 199   0.0000       4.045094       110.0726 
 200   0.0000       4.048024       110.1523 
 201   0.0000       4.071244       110.7842 
 202   0.0000       4.124291       112.2277 
 203   0.0000       4.168802       113.4389 
 204   0.0000       4.171367       113.5087 
 205   0.0000       4.180934       113.7690 
 206   0.0000       4.202411       114.3534 
 207   0.0000       4.244394       115.4958 
 208   0.0000       4.263393       116.0128 
 209   0.0000       4.270493       116.2060 
 210   0.0000       4.326526       117.7308 
 211   0.0000       4.335168       117.9659 
 212   0.0000       4.346821       118.2830 
 213   0.0000       4.449750       121.0839 
 214   0.0000       4.550514       123.8258 
 215   0.0000       4.599311       125.1536 
 216   0.0000       4.601185       125.2046 
 217   0.0000       4.621697       125.7628 
 218   0.0000       4.623261       125.8053 
 219   0.0000       4.648123       126.4819 
 220   0.0000       4.721955       128.4909 
 221   0.0000       4.738389       128.9381 
 222   0.0000       4.767036       129.7176 
 223   0.0000       4.785196       130.2118 
 224   0.0000       4.806556       130.7930 
 225   0.0000       4.866055       132.4121 
 226   0.0000       4.868236       132.4714 
 227   0.0000       4.932516       134.2206 
 228   0.0000       4.936799       134.3371 
 229   0.0000       5.008765       136.2954 
 230   0.0000       5.023014       136.6831 
 231   0.0000       5.026588       136.7804 
 232   0.0000       5.042084       137.2021 
 233   0.0000       5.155097       140.2773 
 234   0.0000       5.196622       141.4073 
 235   0.0000       5.242944       142.6678 
 236   0.0000       5.245519       142.7378 
 237   0.0000       5.350981       145.6076 
 238   0.0000       5.367868       146.0671 
 239   0.0000       5.378506       146.3566 
 240   0.0000       5.489310       149.3717 
 241   0.0000       5.516363       150.1079 
 242   0.0000       5.587194       152.0353 
 243   0.0000       5.602271       152.4455 
 244   0.0000       5.611324       152.6919 
 245   0.0000       5.673315       154.3788 
 246   0.0000       5.673842       154.3931 
 247   0.0000       5.701935       155.1575 
 248   0.0000       5.713261       155.4657 
 249   0.0000       5.977913       162.6673 
 250   0.0000       6.077684       165.3822 
 251   0.0000       6.078319       165.3995 
 252   0.0000       6.078459       165.4033 
 253   0.0000       6.093519       165.8131 
 254   0.0000       6.141889       167.1293 
 255   0.0000       6.256353       170.2440 
 256   0.0000       6.605655       179.7490 
 257   0.0000       6.626948       180.3284 
 258   0.0000       6.651578       180.9986 
 259   0.0000       6.692452       182.1109 
 260   0.0000       6.773780       184.3239 
 261   0.0000       6.970633       189.6806 
 262   0.0000       7.001308       190.5153 
 263   0.0000       7.184976       195.5131 
 264   0.0000       7.219930       196.4643 
 265   0.0000       7.396815       201.2776 
 266   0.0000       7.431834       202.2305 
 267   0.0000       7.671781       208.7598 
 268   0.0000       7.674416       208.8315 
 269   0.0000       7.720098       210.0746 
 270   0.0000       7.918827       215.4822 
 271   0.0000       8.309509       226.1132 
 272   0.0000       8.370479       227.7723 
 273   0.0000      15.153115       412.3372 
 274   0.0000      17.682850       481.1748 
 275   0.0000      17.830755       485.1995 

                    ********************************
                    * MULLIKEN POPULATION ANALYSIS *
                    ********************************

-----------------------
MULLIKEN ATOMIC CHARGES
-----------------------
   0 C :   -0.745869
   1 O :   -0.507737
   2 C :   -0.756132
   3 H :    0.319186
   4 H :    0.346520
   5 H :    0.336030
   6 H :    0.313197
   7 H :    0.367688
   8 H :    0.327117
Sum of atomic charges:    0.0000000

--------------------------------
MULLIKEN REDUCED ORBITAL CHARGES
--------------------------------
  0 C s       :     3.270339  s :     3.270339
      pz      :     1.265694  p :     3.200079
      px      :     0.705780
      py      :     1.228605
      dz2     :     0.041475  d :     0.249812
      dxz     :     0.063101
      dyz     :     0.043665
      dx2y2   :     0.031903
      dxy     :     0.069668
      f0      :     0.003242  f :     0.025638
      f+1     :     0.002376
      f-1     :     0.003347
      f+2     :     0.005224
      f-2     :     0.001418
      f+3     :     0.003089
      f-3     :     0.006942
  1 O s       :     3.836062  s :     3.836062
      pz      :     1.533836  p :     4.621902
      px      :     1.306321
      py      :     1.781745
      dz2     :     0.010310  d :     0.045667
      dxz     :     0.010815
      dyz     :     0.006988
      dx2y2   :     0.011245
      dxy     :     0.006308
      f0      :     0.000602  f :     0.004106
      f+1     :     0.000529
      f-1     :     0.000873
      f+2     :     0.000642
      f-2     :     0.000250
      f+3     :     0.000696
      f-3     :     0.000514
  2 C s       :     3.279146  s :     3.279146
      pz      :     0.875910  p :     3.199860
      px      :     1.223052
      py      :     1.100898
      dz2     :     0.086454  d :     0.250917
      dxz     :     0.024194
      dyz     :     0.040062
      dx2y2   :     0.089246
      dxy     :     0.010960
      f0      :     0.003053  f :     0.026209
      f+1     :     0.006842
      f-1     :     0.004643
      f+2     :     0.003072
      f-2     :     0.004002
      f+3     :     0.003862
      f-3     :     0.000735
  3 H s       :     0.635782  s :     0.635782
      pz      :     0.009103  p :     0.042702
      px      :     0.009727
      py      :     0.023871
      dz2     :    -0.000855  d :     0.002331
      dxz     :     0.000649
      dyz     :     0.003026
      dx2y2   :     0.000246
      dxy     :    -0.000735
  4 H s       :     0.596861  s :     0.596861
      pz      :     0.031773  p :     0.056267
      px      :     0.006118
      py      :     0.018377
      dz2     :     0.001358  d :     0.000351
      dxz     :    -0.000557
      dyz     :    -0.000021
      dx2y2   :    -0.000338
      dxy     :    -0.000090
  5 H s       :     0.620984  s :     0.620984
      pz      :     0.020123  p :     0.040682
      px      :     0.009301
      py      :     0.011258
      dz2     :     0.001862  d :     0.002303
      dxz     :    -0.000809
      dyz     :     0.000452
      dx2y2   :     0.000132
      dxy     :     0.000667
  6 H s       :     0.640598  s :     0.640598
      pz      :     0.017723  p :     0.043719
      px      :     0.011892
      py      :     0.014104
      dz2     :    -0.001228  d :     0.002486
      dxz     :     0.001257
      dyz     :     0.000685
      dx2y2   :     0.001567
      dxy     :     0.000205
  7 H s       :     0.577955  s :     0.577955
      pz      :     0.008982  p :     0.053851
      px      :     0.033582
      py      :     0.011287
      dz2     :     0.000277  d :     0.000507
      dxz     :    -0.000085
      dyz     :    -0.000035
      dx2y2   :    -0.001211
      dxy     :     0.001561
  8 H s       :     0.628351  s :     0.628351
      pz      :     0.010203  p :     0.042214
      px      :     0.011380
      py      :     0.020631
      dz2     :     0.000437  d :     0.002318
      dxz     :    -0.000079
      dyz     :     0.000631
      dx2y2   :    -0.000249
      dxy     :     0.001579


                     *******************************
                     * LOEWDIN POPULATION ANALYSIS *
                     *******************************

----------------------
LOEWDIN ATOMIC CHARGES
----------------------
   0 C :    0.287433
   1 O :    0.519442
   2 C :    0.287000
   3 H :   -0.179577
   4 H :   -0.187662
   5 H :   -0.179667
   6 H :   -0.179710
   7 H :   -0.187582
   8 H :   -0.179677

-------------------------------
LOEWDIN REDUCED ORBITAL CHARGES
-------------------------------
  0 C s       :     2.463656  s :     2.463656
      pz      :     0.791436  p :     2.196579
      px      :     0.620384
      py      :     0.784760
      dz2     :     0.107504  d :     0.720436
      dxz     :     0.179390
      dyz     :     0.077040
      dx2y2   :     0.160637
      dxy     :     0.195865
      f0      :     0.037593  f :     0.331896
      f+1     :     0.042227
      f-1     :     0.020383
      f+2     :     0.061872
      f-2     :     0.013637
      f+3     :     0.061437
      f-3     :     0.094748
  1 O s       :     3.001290  s :     3.001290
      pz      :     1.310020  p :     3.907536
      px      :     1.193945
      py      :     1.403571
      dz2     :     0.091446  d :     0.448495
      dxz     :     0.122386
      dyz     :     0.052323
      dx2y2   :     0.092728
      dxy     :     0.089612
      f0      :     0.028256  f :     0.123238
      f+1     :     0.012157
      f-1     :     0.009973
      f+2     :     0.028706
      f-2     :     0.008767
      f+3     :     0.010122
      f-3     :     0.025257
  2 C s       :     2.463678  s :     2.463678
      pz      :     0.677586  p :     2.196568
      px      :     0.772172
      py      :     0.746810
      dz2     :     0.229286  d :     0.720689
      dxz     :     0.097615
      dyz     :     0.155763
      dx2y2   :     0.178157
      dxy     :     0.059867
      f0      :     0.066566  f :     0.332064
      f+1     :     0.051021
      f-1     :     0.067969
      f+2     :     0.057538
      f-2     :     0.047266
      f+3     :     0.025454
      f-3     :     0.016250
  3 H s       :     0.659609  s :     0.659609
      pz      :     0.086470  p :     0.299001
      px      :     0.064484
      py      :     0.148047
      dz2     :     0.015987  d :     0.220968
      dxz     :     0.010058
      dyz     :     0.083644
      dx2y2   :     0.066822
      dxy     :     0.044456
  4 H s       :     0.666499  s :     0.666499
      pz      :     0.131826  p :     0.297188
      px      :     0.063026
      py      :     0.102336
      dz2     :     0.076747  d :     0.223975
      dxz     :     0.040139
      dyz     :     0.049269
      dx2y2   :     0.039065
      dxy     :     0.018755
  5 H s       :     0.659477  s :     0.659477
      pz      :     0.134795  p :     0.299139
      px      :     0.064602
      py      :     0.099741
      dz2     :     0.076307  d :     0.221051
      dxz     :     0.036527
      dyz     :     0.048469
      dx2y2   :     0.041770
      dxy     :     0.017979
  6 H s       :     0.659652  s :     0.659652
      pz      :     0.112814  p :     0.299047
      px      :     0.093029
      py      :     0.093204
      dz2     :     0.059470  d :     0.221011
      dxz     :     0.052501
      dyz     :     0.051442
      dx2y2   :     0.043758
      dxy     :     0.013840
  7 H s       :     0.666364  s :     0.666364
      pz      :     0.069215  p :     0.297229
      px      :     0.146684
      py      :     0.081331
      dz2     :     0.021548  d :     0.223989
      dxz     :     0.074505
      dyz     :     0.006622
      dx2y2   :     0.042679
      dxy     :     0.078635
  8 H s       :     0.659568  s :     0.659568
      pz      :     0.065480  p :     0.299087
      px      :     0.093172
      py      :     0.140435
      dz2     :     0.020663  d :     0.221022
      dxz     :     0.005117
      dyz     :     0.073225
      dx2y2   :     0.060912
      dxy     :     0.061105


                      *****************************
                      * MAYER POPULATION ANALYSIS *
                      *****************************

  NA   - Mulliken gross atomic population
  ZA   - Total nuclear charge
  QA   - Mulliken gross atomic charge
  VA   - Mayer's total valence
  BVA  - Mayer's bonded valence
  FA   - Mayer's free valence

  ATOM       NA         ZA         QA         VA         BVA        FA
  0 C      6.7459     6.0000    -0.7459     3.6397     3.6397     0.0000
  1 O      8.5077     8.0000    -0.5077     1.8627     1.8627    -0.0000
  2 C      6.7561     6.0000    -0.7561     3.6410     3.6410    -0.0000
  3 H      0.6808     1.0000     0.3192     0.9841     0.9841     0.0000
  4 H      0.6535     1.0000     0.3465     1.0337     1.0337     0.0000
  5 H      0.6640     1.0000     0.3360     0.9641     0.9641     0.0000
  6 H      0.6868     1.0000     0.3132     0.9937     0.9937    -0.0000
  7 H      0.6323     1.0000     0.3677     0.9983     0.9983     0.0000
  8 H      0.6729     1.0000     0.3271     0.9777     0.9777    -0.0000

  Mayer bond orders larger than 0.100000
B(  0-C ,  1-O ) :   0.9072 B(  0-C ,  3-H ) :   0.8907 B(  0-C ,  4-H ) :   0.9246 
B(  0-C ,  5-H ) :   0.8685 B(  1-O ,  2-C ) :   0.9237 B(  2-C ,  6-H ) :   0.8941 
B(  2-C ,  7-H ) :   0.8998 B(  2-C ,  8-H ) :   0.8784 

-------
TIMINGS
-------

Total SCF time: 0 days 0 hours 0 min 11 sec 

Total time                  ....      11.245 sec
Sum of individual times     ....      11.008 sec  ( 97.9%)

Fock matrix formation       ....      10.480 sec  ( 93.2%)
  Split-RI-J                ....       0.846 sec  (  8.1% of F)
  Chain of spheres X        ....       9.585 sec  ( 91.5% of F)
Diagonalization             ....       0.081 sec  (  0.7%)
Density matrix formation    ....       0.009 sec  (  0.1%)
Population analysis         ....       0.023 sec  (  0.2%)
Initial guess               ....       0.085 sec  (  0.8%)
Orbital Transformation      ....       0.000 sec  (  0.0%)
Orbital Orthonormalization  ....       0.000 sec  (  0.0%)
DIIS solution               ....       0.045 sec  (  0.4%)
SOSCF solution              ....       0.059 sec  (  0.5%)

Maximum memory used throughout the entire SCF-calculation: 72.3 MB


           ************************************************************
           *        Program running with 6 parallel MPI-processes     *
           *              working on a common directory               *
           ************************************************************

==========================================================
 RHF-DLPNO-CCSD UNRELAXED PROPERTY CALCULATION
==========================================================



------------------------------------------------------------------------------- 
                              ORCA-MATRIX DRIVEN CI                            
------------------------------------------------------------------------------- 


Wavefunction type
-----------------
Correlation treatment                      ...      CCSD     
Single excitations                         ... ON
Orbital optimization                       ... OFF
Calculation of Lambda equations            ... ON
Calculation of Brueckner orbitals          ... OFF
Perturbative triple excitations            ... OFF
Calculation of F12 correction              ... OFF
Frozen core treatment                      ... chemical core (6 el)
Reference Wavefunction                     ... RHF
  Internal Orbitals:     3 ...   12 ( 10 MO's/ 20 electrons)
  Virtual  Orbitals:    13 ...  275 (263 MO's              )
Number of AO's                             ...    276
Number of electrons                        ...     26
Number of correlated electrons             ...     20

Algorithmic settings
--------------------
Integral transformation                    ... All integrals via the RI transformation
K(C) Formation                             ... RI-DLPNO
   PNO-Integral Storage                    ... ON DISK
   PNO occupation number cut-off           ... 1.000e-07
   Singles PNO occupation number cut-off   ... 3.000e-09
   PNO Mulliken prescreening cut-off       ... 1.000e-03
   Domain cut-off (Mulliken population)    ... 1.000e-03
   PNO Normalization                       ...    1
Maximum number of iterations               ...        50
Convergence tolerance (max. residuum)      ... 1.000e-06
Level shift for amplitude update           ... 2.000e-01
Maximum number of DIIS vectors             ...         7
DIIS turned on at iteration                ...         0
Damping before turning on DIIS             ...     0.500
Damping after turning on DIIS              ...     0.000
Pair specific amplitude update             ... OFF
Natural orbital iterations                 ... OFF
Perturbative natural orbital generation    ... OFF
Printlevel                                 ... 2

Singles Fock matrix elements calculated using PNOs.

Memory handling:
----------------
Maximum memory for working arrays          ...   2000 MB
Data storage in matrix containers          ... UNCOMPRESSED
Data type for integral storage             ... DOUBLE
In-Core Storage of quantities:
   Amplitudes+Sigma Vector      ... NO
   J+K operators                ... NO
   DIIS vectors                 ... NO
   3-external integrals         ... NO
   4-external integrals         ... NO

Localization treatment:
-----------------------
Localization option                        ...    6
Localization threshhold                    ... -1.0e+00
Using relative localization threshhold     ... 1.0e-08
Neglect threshold for strong pairs         ... 1.000e-05 Eh
Prescreening threshold for very weak pairs ... 1.000e-07 Eh

Initializing the integral package          ... done
Localizing the valence orbitals
------------------------------------------------------------------------------
                           ORCA ORBITAL LOCALIZATION
------------------------------------------------------------------------------

Input orbitals are from                  ... dimethyl_ether_DLPNO_CCSD.gbw
Output orbitals are to                   ... dimethyl_ether_DLPNO_CCSD.loc
Max. number of iterations                ... 128
Localizations seeded randomly            ... off
Convergence tolerance                    ... 2.000e-07
Using relative localization threshhold   ... 1.000e-08
Treshold for strong local MOs            ... 9.500e-01
Treshold for bond MOs                    ... 8.500e-01
Operator                                 ... 0
Orbital range for localization           ... 3 to 12
Localization criterion                   ... FOSTER-BOYS (AUGMENTED HESSIAN)
Doing the dipole integrals     ... o.k.
Initial value of the localization sum :    56.140041
ITERATION   0 : L=   73.5879884906 DL=  1.74e+01 (AVERGE_DL)=    0.6226814317 
ITERATION   1 : L=   74.2190319716 DL=  6.31e-01 (AVERGE_DL)=    0.1184195443 
ITERATION   2 : L=   74.2232426160 DL=  4.21e-03 (AVERGE_DL)=    0.0096731523 
ITERATION   3 : L=   74.2235302948 DL=  2.88e-04 (AVERGE_DL)=    0.0025284112 
ITERATION   4 : L=   74.2235617658 DL=  3.15e-05 (AVERGE_DL)=    0.0008362740 
ITERATION   5 : L=   74.2235654966 DL=  3.73e-06 (AVERGE_DL)=    0.0002879374 
ITERATION   6 : L=   74.2235658901 DL=  3.93e-07 (AVERGE_DL)=    0.0000935060 
LOCALIZATION SUM CONVERGED

------------------------------------------------------
AUGMENTED HESSIAN OPTIMIZATION OF FOSTER-BOYS ORBITALS
------------------------------------------------------

Spin operator:           0
Orbital window:          3 to 12
Number of iterations:    128
Gradient tolerance:      2.000e-07
Number of pairs:         45
Davidson threshold:      2000
Diagonalization method:  LAPACK
Iter:    0   L: 74.2235658901   Grad. norm: 4.395802e-04
   *** Likely close to a maximum now. ***
       Augmented Hessian eigenvalues:  8.78e-08 -1.32e+00 -3.59e+00 -5.29e+00 ... 
Iter:    1   L: 74.2235659340   Grad. norm: 4.495566e-08
LOCALIZATION HAS CONVERGED.

Eigenvalues of the Hessian:
  0 -1.321e+00
  1 -3.593e+00
  2 -5.292e+00
  3 -5.526e+00
  4 -7.563e+00
  5 -1.067e+01
  6 -1.765e+01
  7 -1.765e+01
  8 -2.119e+01
  9 -2.120e+01
    ...


------------------------------------------------------------------------------- 
                    LOCALIZED MOLECULAR ORBITAL COMPOSITIONS                   
------------------------------------------------------------------------------- 

The Mulliken populations for each LMO on each atom are computed
The LMO`s will be ordered according to atom index and type
  (A) Strongly localized MO`s have populations of >=0.950 on one atom
  (B) Two center bond orbitals have populations of >=0.850 on two atoms
  (C) Other MO`s are considered to be `delocalized`

FOUND  -   2 strongly local MO`s
       -   8 two center bond MO`s
       -   0 significantly delocalized MO`s

Rather strongly localized orbitals:
MO   4:   1O  -   1.018061
MO   3:   1O  -   1.017841
Bond-like localized orbitals:
MO  12:   8H  -   0.302031  and   2C  -   0.666464
MO  11:   7H  -   0.259416  and   2C  -   0.719842
MO  10:   6H  -   0.307475  and   2C  -   0.663087
MO   9:   5H  -   0.299996  and   0C  -   0.666587
MO   8:   4H  -   0.263962  and   0C  -   0.715068
MO   7:   3H  -   0.306319  and   0C  -   0.663277
MO   6:   2C  -   0.336534  and   1O  -   0.633958
MO   5:   1O  -   0.634005  and   0C  -   0.335338
Localized MO's were stored in: dimethyl_ether_DLPNO_CCSD.loc

Localizing the core orbitals
------------------------------------------------------------------------------
                           ORCA ORBITAL LOCALIZATION
------------------------------------------------------------------------------

Input orbitals are from                  ... dimethyl_ether_DLPNO_CCSD.loc
Output orbitals are to                   ... dimethyl_ether_DLPNO_CCSD.loc
Max. number of iterations                ... 128
Localizations seeded randomly            ... off
Convergence tolerance                    ... 2.000e-07
Using relative localization threshhold   ... 1.000e-08
Treshold for strong local MOs            ... 9.500e-01
Treshold for bond MOs                    ... 8.500e-01
Operator                                 ... 0
Orbital range for localization           ... 0 to 2
Localization criterion                   ... FOSTER-BOYS (AUGMENTED HESSIAN)
Doing the dipole integrals     ... o.k.
Initial value of the localization sum :    14.429386
ITERATION   0 : L=   14.4293908747 DL=  4.85e-06 (AVERGE_DL)=    0.0012720196 
ITERATION   1 : L=   14.4293908747 DL=  0.00e+00 (AVERGE_DL)=    0.0000000000 
LOCALIZATION SUM CONVERGED

------------------------------------------------------
AUGMENTED HESSIAN OPTIMIZATION OF FOSTER-BOYS ORBITALS
------------------------------------------------------

Spin operator:           0
Orbital window:          0 to 2
Number of iterations:    128
Gradient tolerance:      2.000e-07
Number of pairs:         3
Davidson threshold:      2000
Diagonalization method:  LAPACK
Iter:    0   L: 14.4293908747   Grad. norm: 5.633876e-06
   *** Likely close to a maximum now. ***
       Augmented Hessian eigenvalues:  4.12e-13 -2.80e+01 -2.80e+01 -7.70e+01
Iter:    1   L: 14.4293908747   Grad. norm: 3.058468e-19
LOCALIZATION HAS CONVERGED.

Eigenvalues of the Hessian:
  0 -2.796e+01
  1 -2.796e+01
  2 -7.697e+01


------------------------------------------------------------------------------- 
                    LOCALIZED MOLECULAR ORBITAL COMPOSITIONS                   
------------------------------------------------------------------------------- 

The Mulliken populations for each LMO on each atom are computed
The LMO`s will be ordered according to atom index and type
  (A) Strongly localized MO`s have populations of >=0.950 on one atom
  (B) Two center bond orbitals have populations of >=0.850 on two atoms
  (C) Other MO`s are considered to be `delocalized`

FOUND  -   3 strongly local MO`s
       -   0 two center bond MO`s
       -   0 significantly delocalized MO`s

Rather strongly localized orbitals:
MO   2:   2C  -   1.000241
MO   1:   1O  -   0.998555
MO   0:   0C  -   1.001829
Localized MO's were stored in: dimethyl_ether_DLPNO_CCSD.loc

Warning: reference  - re-canonicalizations have been set to INT 1 VIRT 1
Warning: internal orbitals are localized - no re-canonicalization of internal orbitals
Warning: UsePNO is turned on - no re-canonicalization of internal and virtual orbitals

--------------------------
CLOSED-SHELL FOCK OPERATOR
--------------------------

Restoring SHARK [2] ... ok
Entering RIJCOSX section for the Fock matrix
Trying to retrieve the full J-matrix              ... done
Updating the Fock matrix                          ... done
Making the frozen core Coulomb matrix             ... SHARKdone
Retrieving the full K-matrix                      ... done
Calculating the frozen core K-matrix              ... done
Updating the Fock matrix                          ... done
Time needed for Fock operator              ...            1.598 sec
Reference energy                           ...   -154.129224924

--------------
DLPNO SETTINGS (2015 fully linear scaling implementation)
--------------

TCutMKN:           1.000e-03
TCutPAO:           1.000e-03
TCutPNO:           1.000e-07
TCutPNOSingles:    3.000e-09
TCutEN:            9.700e-01
TCutPAOExt:        1.000e-01
TCutPairs:         1.000e-05
TCutPre:           1.000e-07
TCutOSV:           1.000e-06
TCutDOij:          1.000e-05
TCutDO:            5.000e-03
TCutC:             1.000e-04
TCutCPAO:          1.000e-03
TCutCMO:           1.000e-03
TScaleDOMP2PreScr: 2.000e+00
TScaleMKNMP2PreScr:1.000e+01
TScalePNOMP2PreScr:1.000e+00
PAO overlap thresh 1.000e-08
Using PNOs for Singles Fock computation
Use new domains
Use fully linear algorithm

--------------------------
Mulliken population of the LMOs            ... ok
Performing proximity check                 ... No problems found
Calculating differential overlap integrals ... ok

--------------------------
ELECTRON PAIR PRESCREENING
--------------------------

Dipole-based pair screening          .... used

   TCutDOij = 1.000000e-05
   TCutPre  = 1.000000e-07
   .... Finished loop over pairs
Total time spent in the prescreening                  ...     0.003 sec
sum of pair energies estimated for screened out pairs ...       0.000000000000 Eh
Thresholds for map construction and integral transformation for crude MP2:
   TCutMKN                    ...     1.0e-02
   TCutDO                     ...     1.0e-02
   TCutPairs                  ...     1.0e-05
   TCutPNO_CrudeMP2           ...     1.0e-07
   TCutPNOSingles_CrudeMP2    ...     3.0e-09
--------------------------------
LOCAL RI TRANSFORMATION (IAVPAO)
--------------------------------

Orbital window:       3 to 12
Number of PAOs:     276
Basis functions:    276 (96 shells)
Aux. functions:     594 (168 shells)
Use SHARK:           on

Processing maps (0.0 sec)
Average map sizes:
   Aux shells -> MOs              10.0
   Aux shells -> PAOs            276.0
   MOs        -> AO shells        96.0
   PAOs       -> AO shells        96.0

Calculating integrals (0.2 sec, 12.515 MB)
Sorting integrals (0.0 sec, 12.508 MB)
Total time for the integral transformation: 0.2 sec
--------------------------------
INITIAL GUESS AND PNO GENERATION
--------------------------------

PNO truncation parameters                   .... 
    PAOOverlapThresh   =        1.000e-08

    TCutPairs          =        1.000e-05
    TCutPNO            =        1.000e-07
    TCutPNOSingles     =        3.000e-09
    TCutMP2Pairs       =        1.000e-06
    TCutMKN            =        1.000e-02
    TCutDO             =        1.000e-02

Pair selection                          .... not used
Type of local MP2 treatment                 .... semi-local MP2
Strategy for PNO selection                  .... occupation number selection
Pair density normalization                  .... MP2 norm
Spin component scaling                      .... not used

   .... Finished loop over pairs
Computing semi-canonical or full LMP2 densities          ... done (    0.669 sec)
Making pair pair interaction lists          ... done

                       ===========================
                         55 OF   55 PAIRS ARE KEPT CCSD PAIRS
                          0 OF   55 PAIRS ARE KEPT MP2 PAIRS
                          0 OF   55 PAIRS ARE SKIPPED
                       ===========================

Total time spent in the initial guess                 ...     1.321 sec
SL-MP2 correlation energy (all non-screened pairs)    ...      -0.591386288459 Eh

Initial PNO correlation energy                        ...      -0.590934007203 Eh
sum of pair energies prescreened and skipped MP2 pairs...       0.000000000000 Eh
sum of pair energies of crude MP2 skipped pairs only  ...       0.000000000000 Eh
sum of MP2 pair energies for pairs that were not kept ...       0.000000000000 Eh
sum of PNO error estimates for the kept pairs         ...      -0.000452281256 Eh
                                                          --------------------
sum of all corrections                                         -0.000452281256
Initial total correlation energy                               -0.591386288459
Thresholds for map construction and integral transformation for fine MP2 and CCSD(T) calculation:
   TCutMKN   ...     1.0e-03
   TCutDO    ...     5.0e-03
   TCutPairs ...     1.0e-05
   TCutCMO   ...     1.0e-03
   TCutCPAO  ...     1.0e-03

--------------------------------
LOCAL RI TRANSFORMATION (IAVPAO)
--------------------------------

Orbital window:       3 to 12
Number of PAOs:     276
Basis functions:    276 (96 shells)
Aux. functions:     594 (168 shells)
Use SHARK:           on

Processing maps (0.0 sec)
Average map sizes:
   Aux shells -> MOs              10.0
   Aux shells -> PAOs            276.0
   MOs        -> AO shells        96.0
   PAOs       -> AO shells        96.0

Calculating integrals (0.2 sec, 12.515 MB)
Sorting integrals (0.0 sec, 12.508 MB)
Total time for the integral transformation: 0.2 sec
--------------------------------
INITIAL GUESS AND PNO GENERATION
--------------------------------

PNO truncation parameters                   .... 
    ScaleTCutPNO       =        1.000e-02
    PAOOverlapThresh   =        1.000e-08

    TCutPairs          =        1.000e-05
    TCutPNO            =        1.000e-07
    TCutPNOSingles     =        3.000e-09
    TCutMP2Pairs       =        1.000e-06
    TCutMKN            =        1.000e-03
    TCutDO             =        5.000e-03

Pair selection                          .... not used
Type of local MP2 treatment                 .... full local PMP2
Strategy for PNO selection                  .... occupation number selection
Pair density normalization                  .... MP2 norm
Spin component scaling                      .... not used

PASS-1: Formation of initial guess LMP2 amplitudes
Initial amplitudes guess done. Entering LMP2 iteration loop:
   Max. no of iterations          ...  50
   Energy convergence tolerance   ...    1.0e-07
   Residual convergence tolerance ...    5.0e-07
   Fock matrix cutoff             ...    1.0e-05 Eh
   DIIS convergence acceleration parameters:
        Max # vectors in DIIS     ... 7
        Start iteration of DIIS   ... 0
        Levelshift                ... 2.000e-01
        Damping factor 1          ... 5.000e-01
        Damping factor 2          ... 1.000e+00
   L-MP2 PNO cut-off              ...   1.0e-09
   L-MP2 PNO cut-off (core)       ...   1.0e-11
                           *** Turning on DIIS ***
LMP2-Iter=   0:  ELMP2= -0.602029118551  DE=   1.1e-02 RMAX=   5.0e-03
LMP2-Iter=   1:  ELMP2= -0.607577692272  DE=   5.5e-03 RMAX=   2.7e-03
LMP2-Iter=   2:  ELMP2= -0.608435719924  DE=   8.6e-04 RMAX=   3.9e-04
LMP2-Iter=   3:  ELMP2= -0.608530067994  DE=   9.4e-05 RMAX=   1.4e-04
LMP2-Iter=   4:  ELMP2= -0.608534910247  DE=   4.8e-06 RMAX=   1.6e-05
LMP2-Iter=   5:  ELMP2= -0.608534231514  DE=   6.8e-07 RMAX=   5.5e-06
LMP2-Iter=   6:  ELMP2= -0.608534153055  DE=   7.8e-08 RMAX=   9.5e-07
LMP2-Iter=   7:  ELMP2= -0.608534158030  DE=   5.0e-09 RMAX=   2.1e-07
LMP2-Iter=   8:  ELMP2= -0.608534164529  DE=   6.5e-09 RMAX=   3.7e-08 => CONVERGED
PASS-2: Formation of Pair natural orbitals
   .... Finished loop over pairs
Computing semi-canonical or full LMP2 densities          ... done (    0.174 sec)

 PNO Occupation Number Statistics: 
  | Av. % of trace(Dij) retained        ...  99.872174940070
  | sigma^2 in % of trace(Dij) retained ...   2.23e-02
  | Av. % of trace(Di) retained         ...  99.999624195022
  | sigma^2 in % of trace(Di) retained  ...   2.50e-08
 Distributions of % trace(Dij) recovered:
  |       >= 99.9  ...    28 ( 50.9 % of all pairs)
  |   [99.0, 99.9) ...    27 ( 49.1 % of all pairs)
 Distributions of % trace(Di) recovered :
  |       >= 99.9  ...    10 (100.0 % of all I-pairs )

Making pair pair interaction lists          ... done

                       ===========================
                         55 OF   55 PAIRS ARE KEPT
                       ===========================

Total time spent in the initial guess                 ...     2.852 sec
L-MP2 correlation energy (all non-screened pairs)     ...      -0.608534164529 Eh
L-MP2 PNO error correction                            ...      -0.000006594139 Eh
                                                          --------------------
Initial total L-MP2 energy (non-screened pairs)       ...      -0.608540758667 Eh

Initial PNO correlation energy                        ...      -0.608104040218 Eh
sum of pair energies estimated for screened out pairs ...       0.000000000000 Eh
sum of MP2 pair energies for pairs that were not kept ...       0.000000000000 Eh
sum of PNO error estimates for the kept pairs         ...      -0.000436718449 Eh
                                                          --------------------
sum of all corrections                                         -0.000436718449
Initial total correlation energy                               -0.608540758667
Thresholds for map construction and integral transformation for fine MP2 and CCSD(T) calculation:
   TCutMKN   ...     1.0e-03
   TCutDO    ...     5.0e-03
   TCutPairs ...     1.0e-05
   TCutCMO   ...     1.0e-03
   TCutCPAO  ...     1.0e-03

Time for aux screen maps:            0.001
Time for maps after fine MP2:            0.002
-----------------------------
LOCAL RI TRANSFORMATION (IJV)
-----------------------------

Orbital window:       3 to 12
Basis functions:    276 (96 shells)
Aux. functions:     594 (168 shells)
Use SHARK:           on

Processing maps (0.0 sec)
Average map sizes:
   Aux shells -> MOs(i)           10.0
   Aux shells -> MOs(j)           10.0
   MOs        -> AO shells        96.0

Calculating integrals (0.2 sec, 0.460 MB)
Sorting integrals (0.0 sec, 0.453 MB)
Total time for the integral transformation: 0.2 sec
--------------------------------
LOCAL RI TRANSFORMATION (VABPAO)
--------------------------------

Number of PAOs:     276
Basis functions:    276 (96 shells)
Aux. functions:     594 (168 shells)
Use SHARK:           on

Processing maps (0.0 sec)
Average map sizes:
   Aux shells -> PAOs            276.0
   PAOs       -> AO shells        96.0

Calculating integrals (0.6 sec, 345.226 MB)
Finished


-------------------------------------
Pair Pair Term precalculation with     
RI-(ij|mn) and (im|jn) transformation  
ON THE FLY                             
-------------------------------------

   IBatch   1 (of   2)              ... done (    8.612 sec)
   IBatch   2 (of   2)              ... done (    5.856 sec)
Total EXT                           ...          14.468 sec

---------------------
RI-PNO TRANSFORMATION
---------------------

Total Number of PNOs                   ...  3265
Average number of PNOs per pair        ...    59
Maximal number of PNOs per pair        ...    76
   #pairs with  1 -  5 PNOs   :    0
   #pairs with  6 - 10 PNOs   :    0
   #pairs with 11 - 15 PNOs   :    0
   #pairs with 16 - 20 PNOs   :    0
   #pairs with 21 - 25 PNOs   :    0
   #pairs with 26 - 30 PNOs   :    0
   #pairs with 31 - 35 PNOs   :    2
   #pairs with 36 - 40 PNOs   :    6
   #pairs with 41 - 45 PNOs   :    1
   #pairs with 46 - 50 PNOs   :    0
   #pairs with 51 - 55 PNOs   :    4
   #pairs with 56 - 60 PNOs   :   14
   #pairs with 61 - 65 PNOs   :   10
   #pairs with 66 - 70 PNOs   :    8
   #pairs with 71 - 75 PNOs   :    8
   #pairs with 76 - 80 PNOs   :    2

Generation of (ij|ab)[P] integrals            ... on
Generation of (ia|bc)[P],(ja|bc)[P] integrals ... on
Storage of 3 and 4 external integrals         ... on
Generation of ALL (ka|bc)[P] integrals        ... on
Keep RI integrals in memory                   ... off

Ibatch:  1 (of  1)
Starting 2-4 index PNO integral generation ... done

Timings:
Total PNO integral transformation time     ...          7.858 sec
Size of the 3-external file                ...        99 MB
[...]
E(TOT)                                     ...   -154.767139758
Singles Norm <S|S>**1/2                    ...      0.043261046  
T1 diagnostic                              ...      0.009673464  

------------------
LARGEST AMPLITUDES
------------------
   8-> 13   8-> 13       0.033945
  11-> 13  11-> 13       0.033943
  12-> 13  12-> 13       0.030654
   9-> 13   9-> 13       0.030648
   7-> 13   7-> 13       0.030618
  10-> 13  10-> 13       0.030614
   5-> 13   5-> 13       0.028212
   6-> 13   6-> 13       0.028182
  11-> 21  11-> 21       0.027534
   8-> 21   8-> 21       0.027465
  11-> 21  11-> 13       0.025540
  11-> 13  11-> 21       0.025540
   8-> 21   8-> 13       0.025513
   8-> 13   8-> 21       0.025513
  12-> 17  12-> 17       0.023311
   9-> 17   9-> 17       0.023304


--------------------------------------------------
Formed intermediates for Lambda iterations in     1.139 sec
--------------------------------------------------


------------------------------------------------
LAMBDA ITERATIONS FOR RHF COUPLED CLUSTER       
------------------------------------------------

Iter      <Z Sig>           Residual     Time 
  0      0.002653944      0.011618247    8.98
                           *** Turning on DIIS ***
  1     -0.001522273      0.001540638    9.41
  2     -0.000241570      0.001074501    8.95
  3     -0.000103783      0.000452562    9.49
  4     -0.000018435      0.000205908    8.65
  5     -0.000001897      0.000064465    8.53
  6      0.000000799      0.000017620    9.19
  7      0.000000287      0.000005969    8.76
  8      0.000000071      0.000002099    9.32
  9     -0.000000156      0.000000686    9.97
               --- The Lambda iterations for RHF Coupled Cluster have converged ---
Singles Norm <S|S>**1/2                    ...      0.029998829  
T1 diagnostic                              ...      0.006707942  

------------------
LARGEST AMPLITUDES
------------------
   8-> 13   8-> 13       0.033262
  11-> 13  11-> 13       0.033259
  12-> 13  12-> 13       0.029993
   9-> 13   9-> 13       0.029983
   7-> 13   7-> 13       0.029956
  10-> 13  10-> 13       0.029949
   5-> 13   5-> 13       0.027164
   6-> 13   6-> 13       0.027134
  11-> 21  11-> 21       0.026937
   8-> 21   8-> 21       0.026870
  11-> 13  11-> 21       0.025025
  11-> 21  11-> 13       0.025025
   8-> 13   8-> 21       0.024999
   8-> 21   8-> 13       0.024999
  12-> 17  12-> 17       0.022627
   9-> 17   9-> 17       0.022619


----------------------------------------------------------------
 Unrelaxed one-particle density matrices from the CC Lagrangian 
----------------------------------------------------------------

Trace of the occupied block of the density-matrix: =     25.624178848
Trace of the virtual block of the density-matrix:  =      0.375821152
Trace of the total one-particle density-matrix:    =     26.000000000

------------------------------------------------------------------------------
                           ORCA POPULATION ANALYSIS
------------------------------------------------------------------------------
Input electron density              ... dimethyl_ether_DLPNO_CCSD.mdcip
BaseName (.gbw .S,...)              ... dimethyl_ether_DLPNO_CCSD

                    ********************************
                    * MULLIKEN POPULATION ANALYSIS *
                    ********************************

-----------------------
MULLIKEN ATOMIC CHARGES
-----------------------
   0 C :   -0.809750
   1 O :   -0.417811
   2 C :   -0.815978
   3 H :    0.326733
   4 H :    0.365795
   5 H :    0.329600
   6 H :    0.327273
   7 H :    0.363505
   8 H :    0.330634
Sum of atomic charges:    0.0000000

--------------------------------
MULLIKEN REDUCED ORBITAL CHARGES
--------------------------------
  0 C s       :     3.291738  s :     3.291738
      pz      :     1.257829  p :     3.224252
      px      :     0.736372
      py      :     1.230050
      dz2     :     0.040026  d :     0.266391
      dxz     :     0.071877
      dyz     :     0.043686
      dx2y2   :     0.028555
      dxy     :     0.082248
      f0      :     0.003798  f :     0.027369
      f+1     :     0.002586
      f-1     :     0.002936
      f+2     :     0.005407
      f-2     :     0.002225
      f+3     :     0.002872
      f-3     :     0.007545
  1 O s       :     3.824662  s :     3.824662
      pz      :     1.493376  p :     4.502202
      px      :     1.273896
      py      :     1.734930
      dz2     :     0.017352  d :     0.081290
      dxz     :     0.018018
      dyz     :     0.013728
      dx2y2   :     0.017682
      dxy     :     0.014510
      f0      :     0.001531  f :     0.009657
      f+1     :     0.001297
      f-1     :     0.001539
      f+2     :     0.001530
      f-2     :     0.001008
      f+3     :     0.001369
      f-3     :     0.001384
  2 C s       :     3.294505  s :     3.294505
      pz      :     0.898475  p :     3.226281
      px      :     1.219672
      py      :     1.108135
      dz2     :     0.091692  d :     0.267260
      dxz     :     0.027183
      dyz     :     0.043511
      dx2y2   :     0.089025
      dxy     :     0.015849
      f0      :     0.003873  f :     0.027932
      f+1     :     0.006865
      f-1     :     0.004133
      f+2     :     0.003486
      f-2     :     0.004178
      f+3     :     0.004010
      f-3     :     0.001386
  3 H s       :     0.631059  s :     0.631059
      pz      :     0.010652  p :     0.039583
      px      :     0.008732
      py      :     0.020199
      dz2     :    -0.000738  d :     0.002625
      dxz     :     0.000740
      dyz     :     0.002993
      dx2y2   :     0.000138
      dxy     :    -0.000507
  4 H s       :     0.586602  s :     0.586602
      pz      :     0.025004  p :     0.047224
      px      :     0.005898
      py      :     0.016323
      dz2     :     0.001278  d :     0.000379
      dxz     :    -0.000558
      dyz     :    -0.000027
      dx2y2   :    -0.000225
      dxy     :    -0.000090
  5 H s       :     0.628546  s :     0.628546
      pz      :     0.017480  p :     0.039194
      px      :     0.008909
      py      :     0.012804
      dz2     :     0.001796  d :     0.002660
      dxz     :    -0.000628
      dyz     :     0.000366
      dx2y2   :     0.000294
      dxy     :     0.000832
  6 H s       :     0.629514  s :     0.629514
      pz      :     0.013236  p :     0.040192
      px      :     0.012779
      py      :     0.014177
      dz2     :    -0.000980  d :     0.003021
      dxz     :     0.001360
      dyz     :     0.000835
      dx2y2   :     0.001560
      dxy     :     0.000246
  7 H s       :     0.587151  s :     0.587151
      pz      :     0.009867  p :     0.048920
      px      :     0.027171
      py      :     0.011881
      dz2     :     0.000256  d :     0.000425
      dxz     :    -0.000200
      dyz     :     0.000083
      dx2y2   :    -0.001218
      dxy     :     0.001503
  8 H s       :     0.627797  s :     0.627797
      pz      :     0.010625  p :     0.038819
      px      :     0.012146
      py      :     0.016048
      dz2     :     0.000515  d :     0.002750
      dxz     :     0.000027
      dyz     :     0.000754
      dx2y2   :    -0.000103
      dxy     :     0.001557


                     *******************************
                     * LOEWDIN POPULATION ANALYSIS *
                     *******************************

----------------------
LOEWDIN ATOMIC CHARGES
----------------------
   0 C :    0.270104
   1 O :    0.542952
   2 C :    0.269856
   3 H :   -0.178242
   4 H :   -0.184796
   5 H :   -0.178353
   6 H :   -0.178369
   7 H :   -0.184836
   8 H :   -0.178315

-------------------------------
LOEWDIN REDUCED ORBITAL CHARGES
-------------------------------
  0 C s       :     2.465830  s :     2.465830
      pz      :     0.792856  p :     2.205095
      px      :     0.625330
      py      :     0.786909
      dz2     :     0.108645  d :     0.728330
      dxz     :     0.181357
      dyz     :     0.078639
      dx2y2   :     0.159593
      dxy     :     0.200096
      f0      :     0.037200  f :     0.330642
      f+1     :     0.043044
      f-1     :     0.021421
      f+2     :     0.060281
      f-2     :     0.014781
      f+3     :     0.062012
      f-3     :     0.091903
  1 O s       :     3.002026  s :     3.002026
      pz      :     1.288288  p :     3.844440
      px      :     1.179563
      py      :     1.376588
      dz2     :     0.097346  d :     0.479145
      dxz     :     0.128231
      dyz     :     0.058786
      dx2y2   :     0.098895
      dxy     :     0.095887
      f0      :     0.029150  f :     0.131438
      f+1     :     0.013712
      f-1     :     0.011243
      f+2     :     0.029716
      f-2     :     0.009880
      f+3     :     0.011521
      f-3     :     0.026216
  2 C s       :     2.465779  s :     2.465779
      pz      :     0.681446  p :     2.205026
      px      :     0.773871
      py      :     0.749709
      dz2     :     0.231753  d :     0.728574
      dxz     :     0.098575
      dyz     :     0.157565
      dx2y2   :     0.178158
      dxy     :     0.062523
      f0      :     0.064752  f :     0.330764
      f+1     :     0.051133
      f-1     :     0.067935
      f+2     :     0.056344
      f-2     :     0.047156
      f+3     :     0.026481
      f-3     :     0.016963
  3 H s       :     0.647880  s :     0.647880
      pz      :     0.088907  p :     0.309104
      px      :     0.068889
      py      :     0.151309
      dz2     :     0.016361  d :     0.221258
      dxz     :     0.010883
      dyz     :     0.082042
      dx2y2   :     0.066633
      dxy     :     0.045340
  4 H s       :     0.654608  s :     0.654608
      pz      :     0.134551  p :     0.305806
      px      :     0.066364
      py      :     0.104890
      dz2     :     0.076033  d :     0.224382
      dxz     :     0.040712
      dyz     :     0.049431
      dx2y2   :     0.038568
      dxy     :     0.019637
  5 H s       :     0.647802  s :     0.647802
      pz      :     0.137888  p :     0.309250
      px      :     0.068999
      py      :     0.102363
      dz2     :     0.075432  d :     0.221301
      dxz     :     0.037352
      dyz     :     0.048507
      dx2y2   :     0.041136
      dxy     :     0.018874
  6 H s       :     0.647902  s :     0.647902
      pz      :     0.117782  p :     0.309168
      px      :     0.095533
      py      :     0.095853
      dz2     :     0.059647  d :     0.221299
      dxz     :     0.052613
      dyz     :     0.051950
      dx2y2   :     0.042798
      dxy     :     0.014291
  7 H s       :     0.654589  s :     0.654589
      pz      :     0.072014  p :     0.305817
      px      :     0.149949
      py      :     0.083855
      dz2     :     0.022176  d :     0.224430
      dxz     :     0.073871
      dyz     :     0.006962
      dx2y2   :     0.043523
      dxy     :     0.077897
  8 H s       :     0.647831  s :     0.647831
      pz      :     0.068871  p :     0.309173
      px      :     0.095692
      py      :     0.144611
      dz2     :     0.021324  d :     0.221311
      dxz     :     0.005618
      dyz     :     0.072387
      dx2y2   :     0.060839
      dxy     :     0.061142


                      *****************************
                      * MAYER POPULATION ANALYSIS *
                      *****************************

  NA   - Mulliken gross atomic population
  ZA   - Total nuclear charge
  QA   - Mulliken gross atomic charge
  VA   - Mayer's total valence
  BVA  - Mayer's bonded valence
  FA   - Mayer's free valence

  ATOM       NA         ZA         QA         VA         BVA        FA
  0 C      6.8098     6.0000    -0.8098     3.8067     3.4704     0.3363
  1 O      8.4178     8.0000    -0.4178     2.2953     1.8814     0.4139
  2 C      6.8160     6.0000    -0.8160     3.8189     3.4825     0.3364
  3 H      0.6733     1.0000     0.3267     0.9676     0.9027     0.0650
  4 H      0.6342     1.0000     0.3658     0.9814     0.9184     0.0631
  5 H      0.6704     1.0000     0.3296     0.9648     0.9000     0.0648
  6 H      0.6727     1.0000     0.3273     0.9688     0.9038     0.0650
  7 H      0.6365     1.0000     0.3635     0.9849     0.9219     0.0630
  8 H      0.6694     1.0000     0.3306     0.9633     0.8985     0.0648

  Mayer bond orders larger than 0.100000
B(  0-C ,  1-O ) :   0.9318 B(  0-C ,  3-H ) :   0.8194 B(  0-C ,  4-H ) :   0.8348 
B(  0-C ,  5-H ) :   0.8104 B(  1-O ,  2-C ) :   0.9470 B(  2-C ,  6-H ) :   0.8133 
B(  2-C ,  7-H ) :   0.8405 B(  2-C ,  8-H ) :   0.8090 



------------------------------------------------------------------------------- 
                                     TIMINGS                                   
------------------------------------------------------------------------------- 


Total execution time                   ...      246.576 sec

Localization of occupied MO's          ...        0.276 sec (  0.1%)
Fock Matrix Formation                  ...        1.598 sec (  0.6%)
Global overlap, Fock, MKN matrices     ...        0.152 sec (  0.1%)
Differential overlap integrals         ...        0.234 sec (  0.1%)
Organizing maps                        ...        0.006 sec (  0.0%)
RI 3-index integral generations        ...        1.221 sec (  0.5%)
RI-PNO integral transformation         ...       23.821 sec (  9.7%)
Initial Guess                          ...        4.216 sec (  1.7%)
DIIS Solver                            ...        0.441 sec (  0.2%)
State Vector Update                    ...        0.010 sec (  0.0%)
Sigma-vector construction              ...      121.896 sec ( 49.4%)
  <D|H|D>(0-ext)                       ...        0.673 sec (  0.6% of sigma)
  <D|H|D>(2-ext Fock)                  ...        0.010 sec (  0.0% of sigma)
  <D|H|D>(2-ext)                       ...        3.370 sec (  2.8% of sigma)
  <D|H|D>(4-ext)                       ...       22.567 sec ( 18.5% of sigma)
  <D|H|D>(4-ext-corr)                  ...       75.659 sec ( 62.1% of sigma)
  CCSD doubles correction              ...        0.061 sec (  0.1% of sigma)
  <S|H|S>                              ...        0.257 sec (  0.2% of sigma)
  <S|H|D>(1-ext)                       ...        0.095 sec (  0.1% of sigma)
  <D|H|S>(1-ext)                       ...        0.004 sec (  0.0% of sigma)
  <S|H|D>(3-ext)                       ...        0.279 sec (  0.2% of sigma)
  Fock-dressing                        ...        4.183 sec (  3.4% of sigma)
  Singles amplitudes                   ...        0.095 sec (  0.1% of sigma)
  (ik|jl)-dressing                     ...        0.539 sec (  0.4% of sigma)
  (ij|ab),(ia|jb)-dressing             ...        0.868 sec (  0.7% of sigma)
  Pair energies                        ...        0.009 sec (  0.0% of sigma)
Guess for Lagrange multipliers         ...        0.211 sec (  0.1%)
Fock-dressing for lambda iterations    ...        0.318 sec (  0.1%)
(ij|ab),(ia|jb)-dressing with doubles  ...        0.056 sec (  0.0%)
(ik|ja)-dressing for lambda iterations ...        0.668 sec (  0.3%)
(ij|ab),(ia|jb)-dressing with singles  ...        0.037 sec (  0.0%)
Lambda equation construction           ...       91.239 sec ( 37.0%)
  Lambda singles amplitudes            ...        0.062 sec (  0.1% of lambda iter.)
  Lambda doubles w/o 4- and 2-ext      ...        2.464 sec (  2.7% of lambda iter.)
  Pair-pair interaction (2-ext) terms  ...        2.198 sec (  2.4% of lambda iter.)
  4-ext contributions                  ...       66.990 sec ( 73.4% of lambda iter.)
  Lambda singles residua               ...        6.833 sec (  7.5% of lambda iter.)
One-particle density matrix            ...        0.091 sec (  0.0%)


Maximum memory used throughout the entire MDCI-calculation: 1935.6 MB

-------------------------   --------------------
FINAL SINGLE POINT ENERGY      -154.767139758265
-------------------------   --------------------


                            ***************************************
                            *     ORCA property calculations      *
                            ***************************************

                                    ---------------------
                                    Active property flags
                                    ---------------------
   (+) Dipole Moment


------------------------------------------------------------------------------
                       ORCA ELECTRIC PROPERTIES CALCULATION
------------------------------------------------------------------------------

Dipole Moment Calculation                       ... on
Quadrupole Moment Calculation                   ... off
Polarizability Calculation                      ... off
GBWName                                         ... dimethyl_ether_DLPNO_CCSD.gbw
Electron density                                ... dimethyl_ether_DLPNO_CCSD.scfp
The origin for moment calculation is the CENTER OF MASS  = ( 0.627631,  0.443873  0.768977)

-------------
DIPOLE MOMENT
-------------
                                X             Y             Z
Electronic contribution:     -1.13038      -0.79893      -1.38388
Nuclear contribution   :      1.45098       1.02567       1.77571
                        -----------------------------------------
Total Dipole Moment    :      0.32060       0.22674       0.39183
                        -----------------------------------------
Magnitude (a.u.)       :      0.55473
Magnitude (Debye)      :      1.41001



--------------------
Rotational spectrum 
--------------------
 
Rotational constants in cm-1:     1.317439     0.339128     0.300454 
Rotational constants in MHz : 39495.829313 10166.792810  9007.384184 

 Dipole components along the rotational axes: 
x,y,z [a.u.] :     0.000410     0.554730     0.000354 
x,y,z [Debye]:     0.001041     1.410010     0.000901 

 

                           *** MDCI DENSITY ***

------------------------------------------------------------------------------
                       ORCA ELECTRIC PROPERTIES CALCULATION
------------------------------------------------------------------------------

Dipole Moment Calculation                       ... on
Quadrupole Moment Calculation                   ... off
Polarizability Calculation                      ... off
GBWName                                         ... dimethyl_ether_DLPNO_CCSD.gbw
Electron density                                ... dimethyl_ether_DLPNO_CCSD.mdcip
The origin for moment calculation is the CENTER OF MASS  = ( 0.627631,  0.443873  0.768977)

-------------
DIPOLE MOMENT
-------------
                                X             Y             Z
Electronic contribution:     -1.16000      -0.82004      -1.41969
Nuclear contribution   :      1.45098       1.02567       1.77571
                        -----------------------------------------
Total Dipole Moment    :      0.29098       0.20562       0.35602
                        -----------------------------------------
Magnitude (a.u.)       :      0.50369
Magnitude (Debye)      :      1.28028



--------------------
Rotational spectrum 
--------------------
 
Rotational constants in cm-1:     1.317439     0.339128     0.300454 
Rotational constants in MHz : 39495.829313 10166.792810  9007.384184 

 Dipole components along the rotational axes: 
x,y,z [a.u.] :     0.000220     0.503689    -0.000020 
x,y,z [Debye]:     0.000558     1.280275    -0.000051 

 

Timings for individual modules:

Sum of individual times         ...      258.609 sec (=   4.310 min)
GTO integral calculation        ...        0.249 sec (=   0.004 min)   0.1 %
SCF iterations                  ...       11.365 sec (=   0.189 min)   4.4 %
MDCI module                     ...      246.995 sec (=   4.117 min)  95.5 %
                             ****ORCA TERMINATED NORMALLY****
TOTAL RUN TIME: 0 days 0 hours 4 minutes 18 seconds 877 msec
