
                                 *****************
                                 * O   R   C   A *
                                 *****************

           --- An Ab Initio, DFT and Semiempirical electronic structure package ---

                  #######################################################
                  #                        -***-                        #
                  #          Department of theory and spectroscopy      #
                  #               Directorship: Frank Neese             #
                  #        Max Planck Institute fuer Kohlenforschung    #
                  #                Kaiser Wilhelm Platz 1               #
                  #                 D-45470 Muelheim/Ruhr               #
                  #                      Germany                        #
                  #                                                     #
                  #                  All rights reserved                #
                  #                        -***-                        #
                  #######################################################


                         Program Version 4.2.1 -  RELEASE  -


 With contributions from (in alphabetic order):
   Daniel Aravena         : Magnetic Suceptibility
   Michael Atanasov       : Ab Initio Ligand Field Theory (pilot matlab implementation)
   Alexander A. Auer      : GIAO ZORA, VPT2
   Ute Becker             : Parallelization
   Giovanni Bistoni       : ED, misc. LED, open-shell LED, HFLD
   Martin Brehm           : Molecular dynamics
   Dmytro Bykov           : SCF Hessian
   Vijay G. Chilkuri      : MRCI spin determinant printing, contributions to CSF-ICE
   Dipayan Datta          : RHF DLPNO-CCSD density
   Achintya Kumar Dutta   : EOM-CC, STEOM-CC
   Dmitry Ganyushin       : Spin-Orbit,Spin-Spin,Magnetic field MRCI
   Miquel Garcia          : C-PCM Hessian, Gaussian charge scheme
   Yang Guo               : DLPNO-NEVPT2, CIM, IAO-localization
   Andreas Hansen         : Spin unrestricted coupled pair/coupled cluster methods
   Benjamin Helmich-Paris : CASSCF linear response (MC-RPA)
   Lee Huntington         : MR-EOM, pCC
   Robert Izsak           : Overlap fitted RIJCOSX, COSX-SCS-MP3, EOM
   Christian Kollmar      : KDIIS, OOCD, Brueckner-CCSD(T), CCSD density
   Simone Kossmann        : Meta GGA functionals, TD-DFT gradient, OOMP2, MP2 Hessian
   Martin Krupicka        : AUTO-CI
   Lucas Lang             : DCDCAS
   Dagmar Lenk            : GEPOL surface, SMD
   Dimitrios Liakos       : Extrapolation schemes; Compound Job, initial MDCI parallelization
   Dimitrios Manganas     : Further ROCIS development; embedding schemes
   Dimitrios Pantazis     : SARC Basis sets
   Taras Petrenko         : DFT Hessian,TD-DFT gradient, ASA, ECA, R-Raman, ABS, FL, XAS/XES, NRVS
   Peter Pinski           : DLPNO-MP2, DLPNO-MP2 Gradient
   Christoph Reimann      : Effective Core Potentials
   Marius Retegan         : Local ZFS, SOC
   Christoph Riplinger    : Optimizer, TS searches, QM/MM, DLPNO-CCSD(T), (RO)-DLPNO pert. Triples
   Tobias Risthaus        : Range-separated hybrids, TD-DFT gradient, RPA, STAB
   Michael Roemelt        : Original ROCIS implementation
   Masaaki Saitow         : Open-shell DLPNO-CCSD energy and density
   Barbara Sandhoefer     : DKH picture change effects
   Avijit Sen             : IP-ROCIS
   Kantharuban Sivalingam : CASSCF convergence, NEVPT2, FIC-MRCI
   Bernardo de Souza      : ESD, SOC TD-DFT
   Georgi Stoychev        : AutoAux, RI-MP2 NMR
   Willem Van den Heuvel  : Paramagnetic NMR
   Boris Wezisla          : Elementary symmetry handling
   Frank Wennmohs         : Technical directorship


 We gratefully acknowledge several colleagues who have allowed us to
 interface, adapt or use parts of their codes:
   Stefan Grimme, W. Hujo, H. Kruse,             : VdW corrections, initial TS optimization,
                  C. Bannwarth                     DFT functionals, gCP, sTDA/sTD-DF
   Ed Valeev, F. Pavosevic, A. Kumar             : LibInt (2-el integral package), F12 methods
   Garnet Chan, S. Sharma, J. Yang, R. Olivares  : DMRG
   Ulf Ekstrom                                   : XCFun DFT Library
   Mihaly Kallay                                 : mrcc  (arbitrary order and MRCC methods)
   Andreas Klamt, Michael Diedenhofen            : otool_cosmo (COSMO solvation model)
   Jiri Pittner, Ondrej Demel                    : Mk-CCSD
   Frank Weinhold                                : gennbo (NPA and NBO analysis)
   Christopher J. Cramer and Donald G. Truhlar   : smd solvation model
   Lars Goerigk                                  : TD-DFT with DH, B97 family of functionals
   V. Asgeirsson, H. Jonsson                     : NEB implementation
   FAccTs GmbH                                   : IRC, NEB, NEB-TS, Multilevel, MM, QM/MM, CI optimization
   S Lehtola, MJT Oliveira, MAL Marques          : LibXC Library


 Your calculation uses the libint2 library for the computation of 2-el integrals
 For citations please refer to: http://libint.valeyev.net

 Your ORCA version has been built with support for libXC version: 4.2.3
 For citations please refer to: https://tddft.org/programs/libxc/

 This ORCA versions uses:
   CBLAS   interface :  Fast vector & matrix operations
   LAPACKE interface :  Fast linear algebra routines
   SCALAPACK package :  Parallel linear algebra routines




***************************************
The coordinates will be read from file: phosphine_MP2_aug-cc-pVTZ_OPT.xyz
***************************************


----- Orbital basis set information -----
Your calculation utilizes the basis: aug-cc-pVTZ 
    H, B-Ne : Obtained from the ccRepo (grant-hill.group.shef.ac.uk/ccrepo) Feb. 2017
              R. A. Kendall, T. H. Dunning, Jr., R. J. Harrison, J. Chem. Phys. 96, 6796 (1992)
         He : Obtained from the ccRepo (grant-hill.group.shef.ac.uk/ccrepo) Feb. 2017
              D. E. Woon, T. H. Dunning, Jr., J. Chem. Phys. 100, 2975 (1994)
  Li-Be, Na : Obtained from the ccRepo (grant-hill.group.shef.ac.uk/ccrepo) Feb. 2017
              B. P. Prascher, D. E. Woon, K. A. Peterson, T. H. Dunning, Jr., A. K. Wilson, Theor. Chem. Acc. 128, 69 (2011)
         Mg : Obtained from the Peterson Research Group Website (tyr0.chem.wsu.edu/~kipeters) Feb. 2017
              B. P. Prascher, D. E. Woon, K. A. Peterson, T. H. Dunning, Jr., A. K. Wilson, Theor. Chem. Acc. 128, 69 (2011)
      Al-Ar : Obtained from the ccRepo (grant-hill.group.shef.ac.uk/ccrepo) Feb. 2017
              D. E. Woon, T. H. Dunning, Jr., J. Chem. Phys. 98, 1358 (1993)
      Sc-Zn : Obtained from the ccRepo (grant-hill.group.shef.ac.uk/ccrepo) Feb. 2017
              N. B. Balabanov, K. A. Peterson, J. Chem. Phys. 123, 064107 (2005)
              N. B. Balabanov, K. A. Peterson, J. Chem. Phys. 125, 074110 (2006)
      Ga-Kr : Obtained from the ccRepo (grant-hill.group.shef.ac.uk/ccrepo) Feb. 2017
              A. K. Wilson, D. E. Woon, K. A. Peterson, T. H. Dunning, Jr., J. Chem. Phys. 110, 7667 (1999)
     Ag, Au : Obtained from the Peterson Research Group Website (tyr0.chem.wsu.edu/~kipeters) Feb. 2017
              K. A. Peterson, C. Puzzarini, Theor. Chem. Acc. 114, 283 (2005)

----- AuxC basis set information -----
Your calculation utilizes the auxiliary basis: aug-cc-pVTZ/C 
  H-He, B-F, Al-Ar, Ga-Kr : Obtained from the EMSL Basis Set Exchange (bse.pnl.gov) Feb. 2017
                            F. Weigend, A. Kohn, C. Hattig, J. Chem. Phys. 116, 3175 (2002)
                   Be, Mg : Obtained from the TURBOMOLE 7.0 basis set library
                            C. Haettig, Phys. Chem. Chem. Phys. 7, 59 (2005)
                       Ne : Obtained from the EMSL Basis Set Exchange (bse.pnl.gov) Feb. 2017
                            C. Haettig, Phys. Chem. Chem. Phys. 7, 59 (2005)
                            F. Weigend, A. Kohn, C. Hattig, J. Chem. Phys. 116, 3175 (2002)
                    Sc-Zn : Obtained from the EMSL Basis Set Exchange (bse.pnl.gov) Feb. 2017
                            J. G. Hill, J. A. Platts, J. Chem. Phys. 128, 044104 (2008)

================================================================================
                                        WARNINGS
                       Please study these warnings very carefully!
================================================================================


WARNING: MDCI localization with Augmented Hessian Foster-Boys
  ===> : Switching off randomization!

WARNING: Post HF methods need fully converged wavefunctions
  ===> : Setting SCFConvForced true
         You can overwrite this default with %scf ConvForced false 


INFO   : the flag for use of LIBINT has been found!

================================================================================
                                       INPUT FILE
================================================================================
NAME = phosphine_DLPNO-CCSD_aug-cc-pVTZ_SPE.inp
|  1> # phosphine DLPNO-CCSD/aug-cc-pVTZ SPE
|  2> 
|  3> ! DLPNO-CCSD aug-cc-pVTZ aug-cc-pVTZ/C TightSCF PAL8
|  4> %maxcore 1000
|  5> 
|  6> * xyzfile 0 1 phosphine_MP2_aug-cc-pVTZ_OPT.xyz
|  7> 
|  8> 
|  9>                          ****END OF INPUT****
================================================================================

                       ****************************
                       * Single Point Calculation *
                       ****************************

---------------------------------
CARTESIAN COORDINATES (ANGSTROEM)
---------------------------------
  P     -0.089738   -0.126745    0.219710
  H     -0.396186    1.223529   -0.059443
  H     -0.396304   -0.560508   -1.089084
  H      1.285558    0.034114   -0.059153

----------------------------
CARTESIAN COORDINATES (A.U.)
----------------------------
  NO LB      ZA    FRAG     MASS         X           Y           Z
   0 P    15.0000    0    30.974   -0.169580   -0.239513    0.415192
   1 H     1.0000    0     1.008   -0.748683    2.312135   -0.112332
   2 H     1.0000    0     1.008   -0.748907   -1.059207   -2.058071
   3 H     1.0000    0     1.008    2.429352    0.064466   -0.111782

--------------------------------
INTERNAL COORDINATES (ANGSTROEM)
--------------------------------
 P      0   0   0     0.000000000000     0.00000000     0.00000000
 H      1   0   0     1.412472218301     0.00000000     0.00000000
 H      1   2   0     1.412471746650    93.63239542     0.00000000
 H      1   2   3     1.412472278625    93.63266449    93.87912420

---------------------------
INTERNAL COORDINATES (A.U.)
---------------------------
 P      0   0   0     0.000000000000     0.00000000     0.00000000
 H      1   0   0     2.669185664361     0.00000000     0.00000000
 H      1   2   0     2.669184773069    93.63239542     0.00000000
 H      1   2   3     2.669185778356    93.63266449    93.87912420

---------------------
BASIS SET INFORMATION
---------------------
There are 2 groups of distinct atoms

 Group   1 Type P   : 42s17p3d2f contracted to 6s5p3d2f pattern {131313111/77111/111/11}
 Group   2 Type H   : 6s3p2d contracted to 4s3p2d pattern {3111/111/11}

Atom   0P    basis set group =>   1
Atom   1H    basis set group =>   2
Atom   2H    basis set group =>   2
Atom   3H    basis set group =>   2
---------------------------------
AUXILIARY/C BASIS SET INFORMATION
---------------------------------
There are 2 groups of distinct atoms

 Group   1 Type P   : 11s9p8d6f3g contracted to 11s9p8d6f3g pattern {11111111111/111111111/11111111/111111/111}
 Group   2 Type H   : 5s4p3d2f contracted to 5s4p3d2f pattern {11111/1111/111/11}

Atom   0P    basis set group =>   1
Atom   1H    basis set group =>   2
Atom   2H    basis set group =>   2
Atom   3H    basis set group =>   2


           ************************************************************
           *        Program running with 8 parallel MPI-processes     *
           *              working on a common directory               *
           ************************************************************
------------------------------------------------------------------------------
                           ORCA GTO INTEGRAL CALCULATION
------------------------------------------------------------------------------

                         BASIS SET STATISTICS AND STARTUP INFO

 # of primitive gaussian shells          ...   97
 # of primitive gaussian functions       ...  197
 # of contracted shells                  ...   43
 # of contracted basis functions         ...  119
 Highest angular momentum                ...    3
 Maximum contraction depth               ...   13
 Integral package used                   ... LIBINT
 Integral threshhold            Thresh   ...  2.500e-11
 Primitive cut-off              TCut     ...  2.500e-12


------------------------------ INTEGRAL EVALUATION ----------------------------


 * One electron integrals 
 Pre-screening matrix                    ... done
 Shell pair data                         ... done (   0.000 sec)



           ************************************************************
           *        Program running with 8 parallel MPI-processes     *
           *              working on a common directory               *
           ************************************************************
-------------------------------------------------------------------------------
                                 ORCA SCF
-------------------------------------------------------------------------------

------------
SCF SETTINGS
------------
Hamiltonian:
 Ab initio Hamiltonian  Method          .... Hartree-Fock(GTOs)


General Settings:
 Integral files         IntName         .... phosphine_DLPNO-CCSD_aug-cc-pVTZ_SPE
 Hartree-Fock type      HFTyp           .... RHF
 Total Charge           Charge          ....    0
 Multiplicity           Mult            ....    1
 Number of Electrons    NEL             ....   18
 Basis Dimension        Dim             ....  119
 Nuclear Repulsion      ENuc            ....     17.6297796456 Eh

Convergence Acceleration:
 DIIS                   CNVDIIS         .... on
   Start iteration      DIISMaxIt       ....    12
   Startup error        DIISStart       ....  0.200000
   # of expansion vecs  DIISMaxEq       ....     5
   Bias factor          DIISBfac        ....   1.050
   Max. coefficient     DIISMaxC        ....  10.000
 Newton-Raphson         CNVNR           .... off
 SOSCF                  CNVSOSCF        .... on
   Start iteration      SOSCFMaxIt      ....   150
   Startup grad/error   SOSCFStart      ....  0.003300
 Level Shifting         CNVShift        .... on
   Level shift para.    LevelShift      ....    0.2500
   Turn off err/grad.   ShiftErr        ....    0.0010
 Zerner damping         CNVZerner       .... off
 Static damping         CNVDamp         .... on
   Fraction old density DampFac         ....    0.7000
   Max. Damping (<1)    DampMax         ....    0.9800
   Min. Damping (>=0)   DampMin         ....    0.0000
   Turn off err/grad.   DampErr         ....    0.1000
 Fernandez-Rico         CNVRico         .... off

SCF Procedure:
 Maximum # iterations   MaxIter         ....   125
 SCF integral mode      SCFMode         .... Direct
   Integral package                     .... LIBINT
 Reset frequency        DirectResetFreq ....    20
 Integral Threshold     Thresh          ....  2.500e-11 Eh
 Primitive CutOff       TCut            ....  2.500e-12 Eh

Convergence Tolerance:
 Convergence Check Mode ConvCheckMode   .... Total+1el-Energy
 Convergence forced     ConvForced      .... 1
 Energy Change          TolE            ....  1.000e-08 Eh
 1-El. energy change                    ....  1.000e-05 Eh
 Orbital Gradient       TolG            ....  1.000e-05
 Orbital Rotation angle TolX            ....  1.000e-05
 DIIS Error             TolErr          ....  5.000e-07


Diagonalization of the overlap matrix:
Smallest eigenvalue                        ... 1.907e-04
Time for diagonalization                   ...    0.010 sec
Threshold for overlap eigenvalues          ... 1.000e-08
Number of eigenvalues below threshold      ... 0
Time for construction of square roots      ...    0.002 sec
Total time needed                          ...    0.013 sec

-------------------
DFT GRID GENERATION
-------------------

General Integration Accuracy     IntAcc      ...  4.340
Radial Grid Type                 RadialGrid  ... Gauss-Chebyshev
Angular Grid (max. acc.)         AngularGrid ... Lebedev-110
Angular grid pruning method      GridPruning ... 3 (G Style)
Weight generation scheme         WeightScheme... Becke
Basis function cutoff            BFCut       ...    1.0000e-11
Integration weight cutoff        WCut        ...    1.0000e-14
Grids for H and He will be reduced by one unit

# of grid points (after initial pruning)     ...   4188 (   0.0 sec)
# of grid points (after weights+screening)   ...   4139 (   0.0 sec)
nearest neighbour list constructed           ...    0.0 sec
Grid point re-assignment to atoms done       ...    0.0 sec
Grid point division into batches done        ...    0.0 sec
Reduced shell lists constructed in    0.0 sec

Total number of grid points                  ...     4139
Total number of batches                      ...       67
Average number of points per batch           ...       61
Average number of grid points per atom       ...     1035
Average number of shells per batch           ...    36.70 (85.35%)
Average number of basis functions per batch  ...   101.30 (85.13%)
Average number of large shells per batch     ...    34.30 (93.46%)
Average number of large basis fcns per batch ...    95.50 (94.27%)
Maximum spatial batch extension              ...  20.99, 18.96, 17.83 au
Average spatial batch extension              ...   0.95,  0.89,  0.84 au

Time for grid setup =    0.010 sec

------------------------------
INITIAL GUESS: MODEL POTENTIAL
------------------------------
Loading Hartree-Fock densities                     ... done
Calculating cut-offs                               ... done
Setting up the integral package                    ... done
Initializing the effective Hamiltonian             ... done
Starting the Coulomb interaction                   ... done (   0.0 sec)
Reading the grid                                   ... done
Mapping shells                                     ... done
Starting the XC term evaluation                    ... done (   0.0 sec)
Transforming the Hamiltonian                       ... done (   0.0 sec)
Diagonalizing the Hamiltonian                      ... done (   0.0 sec)
Back transforming the eigenvectors                 ... done (   0.0 sec)
Now organizing SCF variables                       ... done
                      ------------------
                      INITIAL GUESS DONE (   0.1 sec)
                      ------------------
--------------
SCF ITERATIONS
--------------
ITER       Energy         Delta-E        Max-DP      RMS-DP      [F,P]     Damp
               ***  Starting incremental Fock matrix formation  ***
  0   -342.4536080044   0.000000000000 0.07260606  0.00113340  0.1194785 0.7000
  1   -342.4634634847  -0.009855480384 0.05193411  0.00092035  0.0876451 0.7000
                               ***Turning on DIIS***
  2   -342.4705663132  -0.007102828428 0.12240814  0.00235603  0.0621263 0.0000
  3   -342.4884143338  -0.017848020625 0.04033961  0.00055096  0.0094596 0.0000
  4   -342.4766309090   0.011783424780 0.01208430  0.00017895  0.0041806 0.0000
                      *** Initiating the SOSCF procedure ***
                           *** Shutting down DIIS ***
                      *** Re-Reading the Fockian *** 
                      *** Removing any level shift *** 
ITER      Energy       Delta-E        Grad      Rot      Max-DP    RMS-DP
  5   -342.48902987  -0.0123989560  0.001563  0.001563  0.001901  0.000046
               *** Restarting incremental Fock matrix formation ***
  6   -342.48787842   0.0011514430  0.000479  0.000813  0.000533  0.000015
  7   -342.48788155  -0.0000031242  0.000195  0.000574  0.000192  0.000010
  8   -342.48788222  -0.0000006722  0.000012  0.000014  0.000131  0.000002
  9   -342.48788222  -0.0000000028  0.000003  0.000005  0.000038  0.000000
                 **** Energy Check signals convergence ****
              ***Rediagonalizing the Fockian in SOSCF/NRSCF***

               *****************************************************
               *                     SUCCESS                       *
               *           SCF CONVERGED AFTER  10 CYCLES          *
               *****************************************************


----------------
TOTAL SCF ENERGY
----------------

Total Energy       :         -342.48788222 Eh           -9319.56907 eV

Components:
Nuclear Repulsion  :           17.62977965 Eh             479.73069 eV
Electronic Energy  :         -360.11766187 Eh           -9799.29977 eV
One Electron Energy:         -508.50435513 Eh          -13837.10697 eV
Two Electron Energy:          148.38669326 Eh            4037.80720 eV

Virial components:
Potential Energy   :         -684.94946512 Eh          -18638.42251 eV
Kinetic Energy     :          342.46158290 Eh            9318.85343 eV
Virial Ratio       :            2.00007679


---------------
SCF CONVERGENCE
---------------

  Last Energy change         ...   -1.5228e-10  Tolerance :   1.0000e-08
  Last MAX-Density change    ...    5.4456e-06  Tolerance :   1.0000e-07
  Last RMS-Density change    ...    7.5287e-08  Tolerance :   5.0000e-09
  Last Orbital Gradient      ...    3.3380e-07  Tolerance :   1.0000e-05
  Last Orbital Rotation      ...    3.8951e-07  Tolerance :   1.0000e-05

             **** THE GBW FILE WAS UPDATED (phosphine_DLPNO-CCSD_aug-cc-pVTZ_SPE.gbw) ****
             **** DENSITY FILE WAS UPDATED (phosphine_DLPNO-CCSD_aug-cc-pVTZ_SPE.scfp) ****
             **** ENERGY FILE WAS UPDATED (phosphine_DLPNO-CCSD_aug-cc-pVTZ_SPE.en.tmp) ****
             **** THE GBW FILE WAS UPDATED (phosphine_DLPNO-CCSD_aug-cc-pVTZ_SPE.gbw) ****
             **** DENSITY FILE WAS UPDATED (phosphine_DLPNO-CCSD_aug-cc-pVTZ_SPE.scfp) ****
----------------
ORBITAL ENERGIES
----------------

  NO   OCC          E(Eh)            E(eV) 
   0   2.0000     -79.944796     -2175.4085 
   1   2.0000      -7.487933      -203.7570 
   2   2.0000      -5.381361      -146.4343 
   3   2.0000      -5.381361      -146.4343 
   4   2.0000      -5.380454      -146.4096 
   5   2.0000      -0.856750       -23.3134 
   6   2.0000      -0.522614       -14.2210 
   7   2.0000      -0.522612       -14.2210 
   8   2.0000      -0.387598       -10.5471 
   9   0.0000       0.029281         0.7968 
  10   0.0000       0.053603         1.4586 
  11   0.0000       0.053603         1.4586 
  12   0.0000       0.081946         2.2299 
  13   0.0000       0.090625         2.4660 
  14   0.0000       0.090625         2.4660 
  15   0.0000       0.137936         3.7534 
  16   0.0000       0.168622         4.5885 
  17   0.0000       0.168623         4.5885 
  18   0.0000       0.199814         5.4372 
  19   0.0000       0.199815         5.4372 
  20   0.0000       0.201673         5.4878 
  21   0.0000       0.275636         7.5004 
  22   0.0000       0.275636         7.5004 
  23   0.0000       0.292297         7.9538 
  24   0.0000       0.308408         8.3922 
  25   0.0000       0.308408         8.3922 
  26   0.0000       0.325190         8.8489 
  27   0.0000       0.326962         8.8971 
  28   0.0000       0.326963         8.8971 
  29   0.0000       0.332596         9.0504 
  30   0.0000       0.380960        10.3664 
  31   0.0000       0.380960        10.3664 
  32   0.0000       0.384870        10.4728 
  33   0.0000       0.566354        15.4113 
  34   0.0000       0.566354        15.4113 
  35   0.0000       0.567797        15.4505 
  36   0.0000       0.601368        16.3640 
  37   0.0000       0.601368        16.3641 
  38   0.0000       0.629313        17.1245 
  39   0.0000       0.659818        17.9546 
  40   0.0000       0.668688        18.1959 
  41   0.0000       0.731469        19.9043 
  42   0.0000       0.731469        19.9043 
  43   0.0000       0.749254        20.3882 
  44   0.0000       0.766594        20.8601 
  45   0.0000       0.766595        20.8601 
  46   0.0000       0.783947        21.3323 
  47   0.0000       0.783947        21.3323 
  48   0.0000       0.863544        23.4982 
  49   0.0000       0.934981        25.4421 
  50   0.0000       0.934981        25.4421 
  51   0.0000       0.968730        26.3605 
  52   0.0000       0.976765        26.5791 
  53   0.0000       1.005313        27.3559 
  54   0.0000       1.005313        27.3560 
  55   0.0000       1.028339        27.9825 
  56   0.0000       1.028341        27.9826 
  57   0.0000       1.037178        28.2230 
  58   0.0000       1.148797        31.2603 
  59   0.0000       1.148797        31.2604 
  60   0.0000       1.173714        31.9384 
  61   0.0000       1.200927        32.6789 
  62   0.0000       1.200927        32.6789 
  63   0.0000       1.265541        34.4371 
  64   0.0000       1.265541        34.4371 
  65   0.0000       1.275714        34.7140 
  66   0.0000       1.467362        39.9289 
  67   0.0000       1.506110        40.9833 
  68   0.0000       1.506111        40.9834 
  69   0.0000       1.512801        41.1654 
  70   0.0000       1.631878        44.4057 
  71   0.0000       1.631879        44.4057 
  72   0.0000       1.649026        44.8723 
  73   0.0000       1.678976        45.6873 
  74   0.0000       1.678976        45.6873 
  75   0.0000       1.787859        48.6501 
  76   0.0000       1.787859        48.6501 
  77   0.0000       1.788935        48.6794 
  78   0.0000       1.888021        51.3757 
  79   0.0000       2.004517        54.5457 
  80   0.0000       2.162277        58.8386 
  81   0.0000       2.162280        58.8386 
  82   0.0000       2.175652        59.2025 
  83   0.0000       2.272157        61.8285 
  84   0.0000       2.272161        61.8286 
  85   0.0000       2.316738        63.0416 
  86   0.0000       2.424205        65.9660 
  87   0.0000       2.424205        65.9660 
  88   0.0000       2.698500        73.4299 
  89   0.0000       2.917881        79.3996 
  90   0.0000       2.917884        79.3997 
  91   0.0000       3.457585        94.0857 
  92   0.0000       3.589018        97.6622 
  93   0.0000       3.589019        97.6622 
  94   0.0000       3.903170       106.2107 
  95   0.0000       3.903170       106.2107 
  96   0.0000       3.921084       106.6981 
  97   0.0000       3.990402       108.5844 
  98   0.0000       3.990402       108.5844 
  99   0.0000       4.124389       112.2303 
 100   0.0000       4.136480       112.5593 
 101   0.0000       4.136483       112.5594 
 102   0.0000       4.206627       114.4681 
 103   0.0000       4.320273       117.5606 
 104   0.0000       4.446868       121.0054 
 105   0.0000       4.446871       121.0055 
 106   0.0000       4.486125       122.0737 
 107   0.0000       4.529609       123.2569 
 108   0.0000       4.529611       123.2570 
 109   0.0000       4.547314       123.7387 
 110   0.0000       4.670115       127.0803 
 111   0.0000       4.762688       129.5993 
 112   0.0000       4.762691       129.5994 
 113   0.0000       4.818279       131.1120 
 114   0.0000       4.818279       131.1120 
 115   0.0000       4.873105       132.6039 
 116   0.0000       5.355559       145.7322 
 117   0.0000       5.355559       145.7322 
 118   0.0000       8.527485       232.0447 

                    ********************************
                    * MULLIKEN POPULATION ANALYSIS *
                    ********************************

-----------------------
MULLIKEN ATOMIC CHARGES
-----------------------
   0 P :   -0.258739
   1 H :    0.086246
   2 H :    0.086247
   3 H :    0.086246
Sum of atomic charges:    0.0000000

--------------------------------
MULLIKEN REDUCED ORBITAL CHARGES
--------------------------------
  0 P s       :     5.569355  s :     5.569355
      pz      :     3.293567  p :     9.413886
      px      :     3.034282
      py      :     3.086037
      dz2     :     0.088508  d :     0.256636
      dxz     :     0.021626
      dyz     :     0.030041
      dx2y2   :     0.102420
      dxy     :     0.014040
      f0      :     0.004645  f :     0.018863
      f+1     :     0.002305
      f-1     :     0.002815
      f+2     :     0.002257
      f-2     :     0.000587
      f+3     :     0.003037
      f-3     :     0.003218
  1 H s       :     0.904974  s :     0.904974
      pz      :     0.000137  p :     0.008504
      px      :    -0.002773
      py      :     0.011140
      dz2     :    -0.000065  d :     0.000276
      dxz     :     0.000090
      dyz     :     0.000142
      dx2y2   :    -0.000134
      dxy     :     0.000242
  2 H s       :     0.904973  s :     0.904973
      pz      :     0.010528  p :     0.008504
      px      :    -0.002771
      py      :     0.000747
      dz2     :     0.000864  d :     0.000276
      dxz     :     0.000522
      dyz     :     0.000335
      dx2y2   :    -0.001255
      dxy     :    -0.000190
  3 H s       :     0.904973  s :     0.904973
      pz      :     0.000137  p :     0.008504
      px      :     0.012517
      py      :    -0.004150
      dz2     :    -0.000065  d :     0.000276
      dxz     :     0.000218
      dyz     :     0.000014
      dx2y2   :     0.000349
      dxy     :    -0.000241


                     *******************************
                     * LOEWDIN POPULATION ANALYSIS *
                     *******************************

----------------------
LOEWDIN ATOMIC CHARGES
----------------------
   0 P :    1.326833
   1 H :   -0.442278
   2 H :   -0.442278
   3 H :   -0.442277

-------------------------------
LOEWDIN REDUCED ORBITAL CHARGES
-------------------------------
  0 P s       :     4.759644  s :     4.759644
      pz      :     2.959954  p :     8.482742
      px      :     2.739380
      py      :     2.783408
      dz2     :     0.107106  d :     0.350031
      dxz     :     0.026163
      dyz     :     0.046408
      dx2y2   :     0.142474
      dxy     :     0.027881
      f0      :     0.015638  f :     0.080750
      f+1     :     0.011052
      f-1     :     0.014220
      f+2     :     0.007486
      f-2     :     0.002791
      f+3     :     0.017494
      f-3     :     0.012069
  1 H s       :     0.829672  s :     0.829672
      pz      :     0.123971  p :     0.397665
      px      :     0.092589
      py      :     0.181106
      dz2     :     0.017482  d :     0.214941
      dxz     :     0.002426
      dyz     :     0.081323
      dx2y2   :     0.057688
      dxy     :     0.056022
  2 H s       :     0.829672  s :     0.829672
      pz      :     0.201564  p :     0.397665
      px      :     0.092591
      py      :     0.103510
      dz2     :     0.081599  d :     0.214941
      dxz     :     0.049549
      dyz     :     0.053735
      dx2y2   :     0.021162
      dxy     :     0.008896
  3 H s       :     0.829673  s :     0.829673
      pz      :     0.123962  p :     0.397664
      px      :     0.177949
      py      :     0.095753
      dz2     :     0.017478  d :     0.214940
      dxz     :     0.078466
      dyz     :     0.005280
      dx2y2   :     0.042250
      dxy     :     0.071465


                      *****************************
                      * MAYER POPULATION ANALYSIS *
                      *****************************

  NA   - Mulliken gross atomic population
  ZA   - Total nuclear charge
  QA   - Mulliken gross atomic charge
  VA   - Mayer's total valence
  BVA  - Mayer's bonded valence
  FA   - Mayer's free valence

  ATOM       NA         ZA         QA         VA         BVA        FA
  0 P     15.2587    15.0000    -0.2587     2.9562     2.9562     0.0000
  1 H      0.9138     1.0000     0.0862     0.9830     0.9830    -0.0000
  2 H      0.9138     1.0000     0.0862     0.9830     0.9830    -0.0000
  3 H      0.9138     1.0000     0.0862     0.9830     0.9830    -0.0000

  Mayer bond orders larger than 0.100000
B(  0-P ,  1-H ) :   0.9854 B(  0-P ,  2-H ) :   0.9854 B(  0-P ,  3-H ) :   0.9854 


-------
TIMINGS
-------

Total SCF time: 0 days 0 hours 0 min 4 sec 

Total time                  ....       4.054 sec
Sum of individual times     ....       3.841 sec  ( 94.7%)

Fock matrix formation       ....       3.437 sec  ( 84.8%)
Diagonalization             ....       0.023 sec  (  0.6%)
Density matrix formation    ....       0.040 sec  (  1.0%)
Population analysis         ....       0.050 sec  (  1.2%)
Initial guess               ....       0.083 sec  (  2.1%)
Orbital Transformation      ....       0.000 sec  (  0.0%)
Orbital Orthonormalization  ....       0.000 sec  (  0.0%)
DIIS solution               ....       0.081 sec  (  2.0%)
SOSCF solution              ....       0.115 sec  (  2.8%)


           ************************************************************
           *        Program running with 8 parallel MPI-processes     *
           *              working on a common directory               *
           ************************************************************


------------------------------------------------------------------------------- 
                              ORCA-MATRIX DRIVEN CI                            
------------------------------------------------------------------------------- 


Wavefunction type
-----------------
Correlation treatment                      ...      CCSD     
Single excitations                         ... ON
Orbital optimization                       ... OFF
Calculation of Z vector                    ... OFF
Calculation of Brueckner orbitals          ... OFF
Perturbative triple excitations            ... OFF
Calculation of F12 correction              ... OFF
Frozen core treatment                      ... chemical core (10 el)
Reference Wavefunction                     ... RHF
  Internal Orbitals:     5 ...    8 (  4 MO's/  8 electrons)
  Virtual  Orbitals:     9 ...  118 (110 MO's              )
Number of AO's                             ...    119
Number of electrons                        ...     18
Number of correlated electrons             ...      8

Algorithmic settings
--------------------
Integral transformation                    ... All integrals via the RI transformation
K(C) Formation                             ... RI-DLPNO
   PNO-Integral Storage                    ... ON DISK
   PNO occupation number cut-off           ... 3.330e-07
   Singles PNO occupation number cut-off   ... 9.990e-09
   PNO Mulliken prescreening cut-off       ... 1.000e-03
   Domain cut-off (Mulliken population)    ... 1.000e-03
   PNO Normalization                       ...    1
Maximum number of iterations               ...        50
Convergence tolerance (max. residuum)      ... 1.000e-05
Level shift for amplitude update           ... 2.000e-01
Maximum number of DIIS vectors             ...         7
DIIS turned on at iteration                ...         0
Damping before turning on DIIS             ...     0.500
Damping after turning on DIIS              ...     0.000
Pair specific amplitude update             ... OFF
Natural orbital iterations                 ... OFF
Perturbative natural orbital generation    ... OFF
Printlevel                                 ... 2

Singles Fock matrix elements calculated using PNOs.

Memory handling:
----------------
Maximum memory for working arrays          ...   1000 MB
Data storage in matrix containers          ... UNCOMPRESSED
Data type for integral storage             ... DOUBLE
In-Core Storage of quantities:
   Amplitudes+Sigma Vector      ... NO
   J+K operators                ... NO
   DIIS vectors                 ... NO
   3-external integrals         ... NO
   4-external integrals         ... NO

Localization treatment:
-----------------------
Localization option                        ...    6
Localization threshhold                    ... -1.0e+00
Using relative localization threshhold     ... 1.0e-08
Neglect threshold for strong pairs         ... 1.000e-04 Eh
Prescreening threshold for very weak pairs ... 1.000e-06 Eh

Initializing the integral package          ... done
Localizing the valence orbitals
------------------------------------------------------------------------------
                           ORCA ORBITAL LOCALIZATION
------------------------------------------------------------------------------

Input orbitals are from                  ... phosphine_DLPNO-CCSD_aug-cc-pVTZ_SPE.gbw
Output orbitals are to                   ... phosphine_DLPNO-CCSD_aug-cc-pVTZ_SPE.loc
Max. number of iterations                ... 128
Localizations seeded randomly            ... off
Convergence tolerance                    ... 1.000e-06
Using relative localization threshhold   ... 1.000e-08
Treshold for strong local MOs            ... 9.500e-01
Treshold for bond MOs                    ... 8.500e-01
Operator                                 ... 0
Orbital range for localization           ... 5 to 8
Localization criterion                   ... FOSTER-BOYS (AUGMENTED HESSIAN)
Doing the dipole integrals     ... o.k.
Initial value of the localization sum :     4.338998
ITERATION   0 : L=   11.3560498204 DL=  7.02e+00 (AVERGE_DL)=    1.0814381894 
ITERATION   1 : L=   11.5995632959 DL=  2.44e-01 (AVERGE_DL)=    0.2014586291 
ITERATION   2 : L=   11.5998355891 DL=  2.72e-04 (AVERGE_DL)=    0.0067366319 
ITERATION   3 : L=   11.5998361346 DL=  5.45e-07 (AVERGE_DL)=    0.0003015112 
LOCALIZATION SUM CONVERGED

------------------------------------------------------
AUGMENTED HESSIAN OPTIMIZATION OF FOSTER-BOYS ORBITALS
------------------------------------------------------

Spin operator:           0
Orbital window:          5 to 8
Number of iterations:    128
Gradient tolerance:      1.000e-06
Number of pairs:         6
Davidson threshold:      2000
Diagonalization method:  LAPACK
Iter:    0   L: 11.5998361346   Grad. norm: 1.014805e-04
   *** Likely close to a maximum now. ***
       Augmented Hessian eigenvalues:  3.88e-10 -2.41e+01 -2.41e+01 -3.01e+01 ... 
Iter:    1   L: 11.5998361348   Grad. norm: 5.713742e-11
LOCALIZATION HAS CONVERGED.

Eigenvalues of the Hessian:
  0 -2.414e+01
  1 -2.414e+01
  2 -3.009e+01
  3 -3.014e+01
  4 -3.567e+01
  5 -3.567e+01


------------------------------------------------------------------------------- 
                    LOCALIZED MOLECULAR ORBITAL COMPOSITIONS                   
------------------------------------------------------------------------------- 

The Mulliken populations for each LMO on each atom are computed
The LMO`s will be ordered according to atom index and type
  (A) Strongly localized MO`s have populations of >=0.950 on one atom
  (B) Two center bond orbitals have populations of >=0.850 on two atoms
  (C) Other MO`s are considered to be `delocalized`

FOUND  -   1 strongly local MO`s
       -   3 two center bond MO`s
       -   0 significantly delocalized MO`s

Rather strongly localized orbitals:
MO   5:   0P  -   1.009001
Bond-like localized orbitals:
MO   8:   3H  -   0.462287  and   0P  -   0.540357
MO   7:   2H  -   0.462287  and   0P  -   0.540357
MO   6:   1H  -   0.462287  and   0P  -   0.540356
Localized MO's were stored in: phosphine_DLPNO-CCSD_aug-cc-pVTZ_SPE.loc

Localizing the core orbitals
------------------------------------------------------------------------------
                           ORCA ORBITAL LOCALIZATION
------------------------------------------------------------------------------

Input orbitals are from                  ... phosphine_DLPNO-CCSD_aug-cc-pVTZ_SPE.loc
Output orbitals are to                   ... phosphine_DLPNO-CCSD_aug-cc-pVTZ_SPE.loc
Max. number of iterations                ... 128
Localizations seeded randomly            ... off
Convergence tolerance                    ... 1.000e-06
Using relative localization threshhold   ... 1.000e-08
Treshold for strong local MOs            ... 9.500e-01
Treshold for bond MOs                    ... 8.500e-01
Operator                                 ... 0
Orbital range for localization           ... 0 to 4
Localization criterion                   ... FOSTER-BOYS (AUGMENTED HESSIAN)
Doing the dipole integrals     ... o.k.
Initial value of the localization sum :     1.291274
ITERATION   0 : L=    1.4725454029 DL=  1.81e-01 (AVERGE_DL)=    0.1346369695 
ITERATION   1 : L=    1.5304607958 DL=  5.79e-02 (AVERGE_DL)=    0.0761021635 
ITERATION   2 : L=    1.5367339880 DL=  6.27e-03 (AVERGE_DL)=    0.0250463414 
ITERATION   3 : L=    1.5370016474 DL=  2.68e-04 (AVERGE_DL)=    0.0051735804 
ITERATION   4 : L=    1.5370307350 DL=  2.91e-05 (AVERGE_DL)=    0.0017055104 
ITERATION   5 : L=    1.5370325743 DL=  1.84e-06 (AVERGE_DL)=    0.0004288668 
ITERATION   6 : L=    1.5370327905 DL=  2.16e-07 (AVERGE_DL)=    0.0001470331 
LOCALIZATION SUM CONVERGED

------------------------------------------------------
AUGMENTED HESSIAN OPTIMIZATION OF FOSTER-BOYS ORBITALS
------------------------------------------------------

Spin operator:           0
Orbital window:          0 to 4
Number of iterations:    128
Gradient tolerance:      1.000e-06
Number of pairs:         10
Davidson threshold:      2000
Diagonalization method:  LAPACK
Iter:    0   L: 1.5370327905   Grad. norm: 1.781284e-04
   *** Detected a saddle point. ***
       Augmented Hessian eigenvalues:  3.38e-04  2.85e-04  2.48e-04 -5.77e-05 ... 
Iter:    1   L: 1.5370520699   Grad. norm: 2.034847e-04
Iter:    2   L: 1.5370866186   Grad. norm: 2.193670e-04
Iter:    3   L: 1.5371235198   Grad. norm: 2.104864e-04
Iter:    4   L: 1.5371570491   Grad. norm: 1.731463e-04
Iter:    5   L: 1.5371818226   Grad. norm: 1.120536e-04
Iter:    6   L: 1.5371939238   Grad. norm: 3.748197e-05
Iter:    7   L: 1.5371947468   Grad. norm: 2.026356e-06
   *** Likely close to a maximum now. ***
       Augmented Hessian eigenvalues:  1.62e-11 -3.59e-04 -3.59e-04 -4.11e-04 ... 
Iter:    8   L: 1.5371947468   Grad. norm: 9.785911e-12
LOCALIZATION HAS CONVERGED.

Eigenvalues of the Hessian:
  0 -3.595e-04
  1 -3.595e-04
  2 -4.112e-04
  3 -1.634e-01
  4 -1.643e-01
  5 -1.643e-01
  6 -4.918e-01
  7 -6.545e-01
  8 -6.566e-01
  9 -6.566e-01


------------------------------------------------------------------------------- 
                    LOCALIZED MOLECULAR ORBITAL COMPOSITIONS                   
------------------------------------------------------------------------------- 

The Mulliken populations for each LMO on each atom are computed
The LMO`s will be ordered according to atom index and type
  (A) Strongly localized MO`s have populations of >=0.950 on one atom
  (B) Two center bond orbitals have populations of >=0.850 on two atoms
  (C) Other MO`s are considered to be `delocalized`

FOUND  -   5 strongly local MO`s
       -   0 two center bond MO`s
       -   0 significantly delocalized MO`s

Rather strongly localized orbitals:
MO   4:   0P  -   1.000292
MO   3:   0P  -   1.000004
MO   2:   0P  -   0.999668
MO   1:   0P  -   0.999668
MO   0:   0P  -   0.999668
Localized MO's were stored in: phosphine_DLPNO-CCSD_aug-cc-pVTZ_SPE.loc

Warning: reference  - re-canonicalizations have been set to INT 1 VIRT 1
Warning: internal orbitals are localized - no re-canonicalization of internal orbitals
Warning: UsePNO is turned on - no re-canonicalization of internal and virtual orbitals

--------------------------
CLOSED-SHELL FOCK OPERATOR
--------------------------

<ss|ss>:        14706 b            0 skpd (  0.0%)    0.006 s ( 0.000 ms/b)
<ss|sp>:        43092 b            0 skpd (  0.0%)    0.020 s ( 0.000 ms/b)
<ss|sd>:        27702 b            0 skpd (  0.0%)    0.009 s ( 0.000 ms/b)
<ss|sf>:         6156 b            0 skpd (  0.0%)    0.004 s ( 0.001 ms/b)
<ss|pp>:        17955 b            0 skpd (  0.0%)    0.014 s ( 0.001 ms/b)
<ss|pd>:        21546 b            0 skpd (  0.0%)    0.008 s ( 0.000 ms/b)
<ss|pf>:         4788 b            0 skpd (  0.0%)    0.003 s ( 0.001 ms/b)
<ss|dd>:         7695 b            0 skpd (  0.0%)    0.002 s ( 0.000 ms/b)
<ss|df>:         3078 b            0 skpd (  0.0%)    0.002 s ( 0.001 ms/b)
<ss|ff>:          513 b            0 skpd (  0.0%)    0.001 s ( 0.002 ms/b)
<sp|sp>:        31878 b            0 skpd (  0.0%)    0.012 s ( 0.000 ms/b)
<sp|sd>:        40824 b            0 skpd (  0.0%)    0.014 s ( 0.000 ms/b)
<sp|sf>:         9072 b            6 skpd (  0.1%)    0.006 s ( 0.001 ms/b)
<sp|pp>:        26460 b            7 skpd (  0.0%)    0.023 s ( 0.001 ms/b)
<sp|pd>:        31752 b            0 skpd (  0.0%)    0.016 s ( 0.000 ms/b)
<sp|pf>:         7056 b            0 skpd (  0.0%)    0.006 s ( 0.001 ms/b)
<sp|dd>:        11340 b            0 skpd (  0.0%)    0.005 s ( 0.000 ms/b)
<sp|df>:         4536 b            0 skpd (  0.0%)    0.004 s ( 0.001 ms/b)
<sp|ff>:          756 b            0 skpd (  0.0%)    0.002 s ( 0.003 ms/b)
<sd|sd>:        13203 b            0 skpd (  0.0%)    0.006 s ( 0.000 ms/b)
<sd|sf>:         5832 b            0 skpd (  0.0%)    0.005 s ( 0.001 ms/b)
<sd|pp>:        17010 b            3 skpd (  0.0%)    0.018 s ( 0.001 ms/b)
<sd|pd>:        20412 b            0 skpd (  0.0%)    0.014 s ( 0.001 ms/b)
<sd|pf>:         4536 b            0 skpd (  0.0%)    0.005 s ( 0.001 ms/b)
<sd|dd>:         7290 b            0 skpd (  0.0%)    0.005 s ( 0.001 ms/b)
<sd|df>:         2916 b            0 skpd (  0.0%)    0.004 s ( 0.001 ms/b)
<sd|ff>:          486 b            0 skpd (  0.0%)    0.002 s ( 0.005 ms/b)
<sf|sf>:          666 b            1 skpd (  0.2%)    0.002 s ( 0.002 ms/b)
<sf|pp>:         3780 b            6 skpd (  0.2%)    0.009 s ( 0.002 ms/b)
<sf|pd>:         4536 b            6 skpd (  0.1%)    0.006 s ( 0.001 ms/b)
<sf|pf>:         1008 b            0 skpd (  0.0%)    0.002 s ( 0.002 ms/b)
<sf|dd>:         1620 b            3 skpd (  0.2%)    0.002 s ( 0.001 ms/b)
<sf|df>:          648 b            0 skpd (  0.0%)    0.002 s ( 0.003 ms/b)
<sf|ff>:          108 b            0 skpd (  0.0%)    0.001 s ( 0.010 ms/b)
<pp|pp>:         5565 b            0 skpd (  0.0%)    0.011 s ( 0.002 ms/b)
<pp|pd>:        13230 b            0 skpd (  0.0%)    0.012 s ( 0.001 ms/b)
<pp|pf>:         2940 b            0 skpd (  0.0%)    0.004 s ( 0.002 ms/b)
<pp|dd>:         4725 b            0 skpd (  0.0%)    0.005 s ( 0.001 ms/b)
<pp|df>:         1890 b            0 skpd (  0.0%)    0.004 s ( 0.002 ms/b)
<pp|ff>:          315 b            0 skpd (  0.0%)    0.002 s ( 0.007 ms/b)
<pd|pd>:         8001 b            0 skpd (  0.0%)    0.011 s ( 0.001 ms/b)
<pd|pf>:         3528 b            0 skpd (  0.0%)    0.007 s ( 0.002 ms/b)
<pd|dd>:         5670 b            0 skpd (  0.0%)    0.009 s ( 0.002 ms/b)
<pd|df>:         2268 b            0 skpd (  0.0%)    0.007 s ( 0.003 ms/b)
<pd|ff>:          378 b            0 skpd (  0.0%)    0.004 s ( 0.010 ms/b)
<pf|pf>:          406 b            0 skpd (  0.0%)    0.002 s ( 0.005 ms/b)
<pf|dd>:         1260 b            0 skpd (  0.0%)    0.003 s ( 0.003 ms/b)
<pf|df>:          504 b            0 skpd (  0.0%)    0.003 s ( 0.006 ms/b)
<pf|ff>:           84 b            0 skpd (  0.0%)    0.002 s ( 0.020 ms/b)
<dd|dd>:         1035 b            0 skpd (  0.0%)    0.003 s ( 0.003 ms/b)
<dd|df>:          810 b            0 skpd (  0.0%)    0.004 s ( 0.005 ms/b)
<dd|ff>:          135 b            0 skpd (  0.0%)    0.002 s ( 0.017 ms/b)
<df|df>:          171 b            0 skpd (  0.0%)    0.002 s ( 0.010 ms/b)
<df|ff>:           54 b            0 skpd (  0.0%)    0.002 s ( 0.031 ms/b)
<ff|ff>:            6 b            0 skpd (  0.0%)    0.000 s ( 0.075 ms/b)
Time needed for Fock operator              ...            0.345 sec
Reference energy                           ...   -342.487882221

--------------
DLPNO SETTINGS (2015 fully linear scaling implementation)
--------------

TCutMKN:           1.000e-03
TCutPAO:           1.000e-03
TCutPNO:           3.330e-07
TCutPNOSingles:    9.990e-09
TCutEN:            9.700e-01
TCutPAOExt:        1.000e-01
TCutPairs:         1.000e-04
TCutPre:           1.000e-06
TCutOSV:           1.000e-06
TCutDOij:          1.000e-05
TCutDO:            1.000e-02
TCutC:             1.000e-04
TCutCPAO:          1.000e-03
TCutCMO:           1.000e-03
TScaleDOMP2PreScr: 2.000e+00
TScaleMKNMP2PreScr:1.000e+01
TScalePNOMP2PreScr:1.000e+00
PAO overlap thresh 1.000e-08
Using PNOs for Singles Fock computation
Use new domains
Use fully linear algorithm

--------------------------
Calculating differential overlap integrals ... ok
--------------------------
ELECTRON PAIR PRESCREENING
--------------------------

Dipole-based pair screening          .... used

   TCutDOij = 1.000000e-05
   TCutPre  = 1.000000e-06
   .... Finished loop over pairs
Total time spent in the prescreening                  ...     0.000 sec
sum of pair energies estimated for screened out pairs ...       0.000000000000 Eh
Thresholds for map construction and integral transformation for crude MP2:
   TCutMKN                    ...     1.0e-02
   TCutDO                     ...     2.0e-02
   TCutPairs                  ...     1.0e-04
   TCutPNO_CrudeMP2           ...     3.3e-07
   TCutPNOSingles_CrudeMP2    ...     1.0e-08
--------------------------------
LOCAL RI TRANSFORMATION (IAVPAO)
--------------------------------

Orbital window:       5 to 8
Number of PAOs:     119
Basis functions:    119 (43 shells)
Aux. functions:     285 (79 shells)

Processing maps (0.0 sec)
Average map sizes:
   Aux shells -> MOs               4.0
   Aux shells -> PAOs            119.0
   MOs        -> AO shells        43.0
   PAOs       -> AO shells        43.0

Calculating integrals (0.2 sec, 1.038 MB)
Sorting integrals (0.0 sec, 1.035 MB)
Total time for the integral transformation: 0.2 sec
--------------------------------
INITIAL GUESS AND PNO GENERATION
--------------------------------

PNO truncation parameters                   .... 
    PAOOverlapThresh   =        1.000e-08

    TCutPairs          =        1.000e-04
    TCutPNO            =        3.330e-07
    TCutPNOSingles     =        9.990e-09
    TCutMP2Pairs       =        1.000e-05
    TCutMKN            =        1.000e-02
    TCutDO             =        2.000e-02

Pair selection                          .... not used
Type of local MP2 treatment                 .... semi-local MP2
Strategy for PNO selection                  .... occupation number selection
Pair density normalization                  .... MP2 norm
Spin component scaling                      .... not used

   .... Finished loop over pairs
Making pair pair interaction lists          ... done

                       ===========================
                         10 OF   10 PAIRS ARE KEPT CCSD PAIRS
                          0 OF   10 PAIRS ARE KEPT MP2 PAIRS
                          0 OF   10 PAIRS ARE SKIPPED
                       ===========================

Total time spent in the initial guess                 ...     0.247 sec
SL-MP2 correlation energy (all non-screened pairs)    ...      -0.169832151489 Eh

Initial PNO correlation energy                        ...      -0.169715314797 Eh
sum of pair energies prescreened and skipped MP2 pairs...       0.000000000000 Eh
sum of pair energies of crude MP2 skipped pairs only  ...       0.000000000000 Eh
sum of MP2 pair energies for pairs that were not kept ...       0.000000000000 Eh
sum of PNO error estimates for the kept pairs         ...      -0.000116836692 Eh
                                                          --------------------
sum of all corrections                                         -0.000116836692
Initial total correlation energy                               -0.169832151489
Thresholds for map construction and integral transformation for fine MP2 and CCSD(T) calculation:
   TCutMKN   ...     1.0e-03
   TCutDO    ...     1.0e-02
   TCutPairs ...     1.0e-04
   TCutCMO   ...     1.0e-03
   TCutCPAO  ...     1.0e-03

--------------------------------
LOCAL RI TRANSFORMATION (IAVPAO)
--------------------------------

Orbital window:       5 to 8
Number of PAOs:     119
Basis functions:    119 (43 shells)
Aux. functions:     285 (79 shells)

Processing maps (0.0 sec)
Average map sizes:
   Aux shells -> MOs               4.0
   Aux shells -> PAOs            119.0
   MOs        -> AO shells        43.0
   PAOs       -> AO shells        43.0

Calculating integrals (0.1 sec, 1.038 MB)
Sorting integrals (0.0 sec, 1.035 MB)
Total time for the integral transformation: 0.1 sec
--------------------------------
INITIAL GUESS AND PNO GENERATION
--------------------------------

PNO truncation parameters                   .... 
    PAOOverlapThresh   =        1.000e-08

    TCutPairs          =        1.000e-04
    TCutPNO            =        3.330e-07
    TCutPNOSingles     =        9.990e-09
    TCutMP2Pairs       =        1.000e-05
    TCutMKN            =        1.000e-03
    TCutDO             =        1.000e-02

Pair selection                          .... not used
Type of local MP2 treatment                 .... semi-local MP2
Strategy for PNO selection                  .... occupation number selection
Pair density normalization                  .... MP2 norm
Spin component scaling                      .... not used

   .... Finished loop over pairs

 PNO Occupation Number Statistics: 
  | Av. % of trace(Dij) retained        ...  99.970582148855
  | sigma^2 in % of trace(Dij) retained ...   2.55e-04
  | Av. % of trace(Di) retained         ...  99.999528716872
  | sigma^2 in % of trace(Di) retained  ...   1.42e-09
 Distributions of % trace(Dij) recovered:
  |       >= 99.9  ...    10 (100.0 % of all pairs)
 Distributions of % trace(Di) recovered :
  |       >= 99.9  ...     4 (100.0 % of all I-pairs )

Making pair pair interaction lists          ... done

                       ===========================
                         10 OF   10 PAIRS ARE KEPT
                       ===========================

Total time spent in the initial guess                 ...     0.035 sec
SL-MP2 correlation energy (all non-screened pairs)    ...      -0.169896218168 Eh

Initial PNO correlation energy                        ...      -0.169778527381 Eh
sum of pair energies estimated for screened out pairs ...       0.000000000000 Eh
sum of MP2 pair energies for pairs that were not kept ...       0.000000000000 Eh
sum of PNO error estimates for the kept pairs         ...      -0.000117690788 Eh
                                                          --------------------
sum of all corrections                                         -0.000117690788
Initial total correlation energy                               -0.169896218168
Thresholds for map construction and integral transformation for fine MP2 and CCSD(T) calculation:
   TCutMKN   ...     1.0e-03
   TCutDO    ...     1.0e-02
   TCutPairs ...     1.0e-04
   TCutCMO   ...     1.0e-03
   TCutCPAO  ...     1.0e-03

Time for aux screen maps:            0.000
Time for maps after fine MP2:            0.000
-----------------------------
LOCAL RI TRANSFORMATION (IJV)
-----------------------------

Orbital window:       5 to 8
Basis functions:    119 (43 shells)
Aux. functions:     285 (79 shells)

Processing maps (0.0 sec)
Average map sizes:
   Aux shells -> MOs(i)            4.0
   Aux shells -> MOs(j)            4.0
   MOs        -> AO shells        43.0

Calculating integrals (0.1 sec, 0.038 MB)
Sorting integrals (0.0 sec, 0.035 MB)
Total time for the integral transformation: 0.1 sec
--------------------------------
LOCAL RI TRANSFORMATION (VABPAO)
--------------------------------

Number of PAOs:     119
Basis functions:    119 (43 shells)
Aux. functions:     285 (79 shells)

Processing maps (0.0 sec)
Average map sizes:
   Aux shells -> PAOs            119.0
   PAOs       -> AO shells        43.0

Calculating integrals (2.5 sec, 58.348 MB)
Finished


-------------------------------------
Pair Pair Term precalculation with     
RI-(ij|mn) and (im|jn) transformation  
ON THE FLY                             
-------------------------------------

   IBatch   1 (of   1)              ... done (    0.482 sec)
Total EXT                           ...           0.482 sec

---------------------
RI-PNO TRANSFORMATION
---------------------

Total Number of PNOs                   ...   519
Average number of PNOs per pair        ...    51
Maximal number of PNOs per pair        ...    58
   #pairs with  1 -  5 PNOs   :    0
   #pairs with  6 - 10 PNOs   :    0
   #pairs with 11 - 15 PNOs   :    0
   #pairs with 16 - 20 PNOs   :    0
   #pairs with 21 - 25 PNOs   :    0
   #pairs with 26 - 30 PNOs   :    0
   #pairs with 31 - 35 PNOs   :    0
   #pairs with 36 - 40 PNOs   :    0
   #pairs with 41 - 45 PNOs   :    0
   #pairs with 46 - 50 PNOs   :    4
   #pairs with 51 - 55 PNOs   :    3
   #pairs with 56 - 60 PNOs   :    3

Generation of (ij|ab)[P] integrals            ... on
Generation of (ia|bc)[P],(ja|bc)[P] integrals ... on
Storage of 3 and 4 external integrals         ... on
Generation of ALL (ka|bc)[P] integrals        ... on
Keep RI integrals in memory                   ... off

Ibatch:  1 (of  1)
Starting 2-4 index PNO integral generation ... done

Timings:
Total PNO integral transformation time     ...          8.036 sec
Size of the 3-external file                ...        11 MB
Size of the 4-external file                ...        75 MB
Size of the IKJL file                      ...         0 MB
Size of the all 3-external file            ...        22 MB
Size of the 1-external file                ...         0 MB

Making pair/pair overlap matrices          ... done (    0.226 sec)
Size of the pair overlap file              ... 2 MB
Redoing the guess amplitudes               ... done (    0.000 sec)

-------------------------
FINAL STARTUP INFORMATION
-------------------------

E(0)                                       ...   -342.487882221
E(SL-MP2)                                  ...     -0.169896218
E(SL-MP2) including corrections            ...     -0.169896218
Initial E(tot)                             ...   -342.657778439
<T|T>                                      ...      0.068567844
Number of pairs included                   ... 10
Total number of pairs                      ... 10

------------------------------------------------
                  RHF COUPLED CLUSTER ITERATIONS
------------------------------------------------

Number of PNO amplitudes to be optimized   ...        27171
Number of non-PNO amplitudes               ...       121000
Untruncated number of regular amplitudes   ...       121000

Iter       E(tot)           E(Corr)          Delta-E          Residual     Time
  0   -342.657781842     -0.169781931      0.000114288      0.011422736    0.78
                           *** Turning on DIIS ***
  1   -342.678120107     -0.190120195     -0.020338264      0.007237440    0.72
  2   -342.687637879     -0.199637967     -0.009517772      0.002303438    0.76
  3   -342.688822354     -0.200822442     -0.001184475      0.000937530    0.70
  4   -342.689168049     -0.201168138     -0.000345695      0.000300489    0.75
  5   -342.689281326     -0.201281414     -0.000113277      0.000076362    0.69
  6   -342.689294110     -0.201294198     -0.000012784      0.000032188    0.70
  7   -342.689296788     -0.201296876     -0.000002678      0.000013992    0.68
  8   -342.689297375     -0.201297463     -0.000000587      0.000005419    0.70
               --- The Coupled-Cluster iterations have converged ---

----------------------
COUPLED CLUSTER ENERGY
----------------------

E(0)                                       ...   -342.487882221
E(CORR)(strong-pairs)                      ...     -0.201297463
E(CORR)(weak-pairs)                        ...     -0.000117691
E(CORR)(corrected)                         ...     -0.201415154
E(TOT)                                     ...   -342.689297375
Singles Norm <S|S>**1/2                    ...      0.036881582  
T1 diagnostic                              ...      0.013039608  

------------------
LARGEST AMPLITUDES
------------------
   5-> 11   5-> 11       0.056726
   5-> 10   5-> 10       0.056726
   6->  9   6->  9       0.049006
   8->  9   8->  9       0.049006
   7->  9   7->  9       0.049006
   5-> 19   5-> 19       0.030958
   5-> 10   5-> 23       0.030036
   5-> 23   5-> 10       0.030036
   5-> 24   5-> 11       0.030036
   5-> 11   5-> 24       0.030036
   6-> 11   6-> 11       0.029884
   7-> 11   7-> 11       0.029884
   8-> 11   8-> 11       0.029884
   6-> 18   6->  9       0.027995
   6->  9   6-> 18       0.027995
   8->  9   8-> 18       0.027995


        !!!!!!!!!!!!!!!!!!!!!!!!!!!!!!!!!!!!!!!!!!!!!!!!!!!!!!!!!!!!!!!!!!!!!!!!!! 
        !  Warning: Linearized densities requested! These are not the proper     !
        !  density matrices for non-variational theories, e.g., CCSD, QCISD.     !
        !  It is better to use the Density = Unrelaxed option in the input.      !
        !!!!!!!!!!!!!!!!!!!!!!!!!!!!!!!!!!!!!!!!!!!!!!!!!!!!!!!!!!!!!!!!!!!!!!!!!! 

NORM  =      1.109098739 sqrt=     1.053137569
W(HF) =      0.901632979
------------------------------------------------------------------------------
                           ORCA POPULATION ANALYSIS
------------------------------------------------------------------------------
Input electron density              ... phosphine_DLPNO-CCSD_aug-cc-pVTZ_SPE.mdcip
BaseName (.gbw .S,...)              ... phosphine_DLPNO-CCSD_aug-cc-pVTZ_SPE

                    ********************************
                    * MULLIKEN POPULATION ANALYSIS *
                    ********************************

-----------------------
MULLIKEN ATOMIC CHARGES
-----------------------
   0 P :   -0.341919
   1 H :    0.113973
   2 H :    0.113973
   3 H :    0.113973
Sum of atomic charges:   -0.0000000

--------------------------------
MULLIKEN REDUCED ORBITAL CHARGES
--------------------------------
  0 P s       :     5.587272  s :     5.587272
      pz      :     3.275024  p :     9.449254
      px      :     3.066282
      py      :     3.107948
      dz2     :     0.090517  d :     0.281605
      dxz     :     0.032859
      dyz     :     0.039475
      dx2y2   :     0.096166
      dxy     :     0.022588
      f0      :     0.004687  f :     0.023787
      f+1     :     0.003470
      f-1     :     0.003802
      f+2     :     0.002973
      f-2     :     0.001844
      f+3     :     0.003420
      f-3     :     0.003591
  1 H s       :     0.864505  s :     0.864505
      pz      :     0.006200  p :     0.020153
      px      :     0.001967
      py      :     0.011986
      dz2     :     0.000169  d :     0.001370
      dxz     :     0.000264
      dyz     :     0.000550
      dx2y2   :     0.000162
      dxy     :     0.000226
  2 H s       :     0.864504  s :     0.864504
      pz      :     0.012309  p :     0.020153
      px      :     0.001968
      py      :     0.005876
      dz2     :     0.001185  d :     0.001370
      dxz     :     0.000398
      dyz     :     0.000270
      dx2y2   :    -0.000575
      dxy     :     0.000092
  3 H s       :     0.864504  s :     0.864504
      pz      :     0.006201  p :     0.020153
      px      :     0.013182
      py      :     0.000770
      dz2     :     0.000169  d :     0.001370
      dxz     :     0.000607
      dyz     :     0.000206
      dx2y2   :     0.000400
      dxy     :    -0.000013


                     *******************************
                     * LOEWDIN POPULATION ANALYSIS *
                     *******************************

----------------------
LOEWDIN ATOMIC CHARGES
----------------------
   0 P :    1.318014
   1 H :   -0.439338
   2 H :   -0.439338
   3 H :   -0.439338

-------------------------------
LOEWDIN REDUCED ORBITAL CHARGES
-------------------------------
  0 P s       :     4.749518  s :     4.749518
      pz      :     2.938931  p :     8.472232
      px      :     2.747550
      py      :     2.785750
      dz2     :     0.109880  d :     0.369089
      dxz     :     0.035128
      dyz     :     0.052047
      dx2y2   :     0.137995
      dxy     :     0.034040
      f0      :     0.017005  f :     0.091147
      f+1     :     0.012730
      f-1     :     0.015997
      f+2     :     0.009024
      f-2     :     0.004153
      f+3     :     0.018830
      f-3     :     0.013407
  1 H s       :     0.808621  s :     0.808621
      pz      :     0.129298  p :     0.412880
      px      :     0.098255
      py      :     0.185327
      dz2     :     0.018085  d :     0.217837
      dxz     :     0.003340
      dyz     :     0.080889
      dx2y2   :     0.058097
      dxy     :     0.057426
  2 H s       :     0.808622  s :     0.808622
      pz      :     0.206225  p :     0.412880
      px      :     0.098257
      py      :     0.108398
      dz2     :     0.081751  d :     0.217837
      dxz     :     0.051151
      dyz     :     0.054514
      dx2y2   :     0.020809
      dxy     :     0.009611
  3 H s       :     0.808622  s :     0.808622
      pz      :     0.129290  p :     0.412880
      px      :     0.181765
      py      :     0.101825
      dz2     :     0.018081  d :     0.217836
      dxz     :     0.078782
      dyz     :     0.005445
      dx2y2   :     0.043206
      dxy     :     0.072323


                      *****************************
                      * MAYER POPULATION ANALYSIS *
                      *****************************

  NA   - Mulliken gross atomic population
  ZA   - Total nuclear charge
  QA   - Mulliken gross atomic charge
  VA   - Mayer's total valence
  BVA  - Mayer's bonded valence
  FA   - Mayer's free valence

  ATOM       NA         ZA         QA         VA         BVA        FA
  0 P     15.3419    15.0000    -0.3419     3.2878     2.7225     0.5654
  1 H      0.8860     1.0000     0.1140     1.0016     0.9120     0.0896
  2 H      0.8860     1.0000     0.1140     1.0016     0.9120     0.0896
  3 H      0.8860     1.0000     0.1140     1.0016     0.9120     0.0896

  Mayer bond orders larger than 0.100000
B(  0-P ,  1-H ) :   0.9075 B(  0-P ,  2-H ) :   0.9075 B(  0-P ,  3-H ) :   0.9075 



Maximum memory used throughout the entire calculation: 353.5 MB


------------------------------------------------------------------------------- 
                                     TIMINGS                                   
------------------------------------------------------------------------------- 


Total execution time                   ...       20.327 sec

Localization of occupied MO's          ...        1.044 sec (  5.1%)
Fock Matrix Formation                  ...        0.345 sec (  1.7%)
Global overlap, Fock, MKN matrices     ...        0.059 sec (  0.3%)
Differential overlap integrals         ...        0.009 sec (  0.0%)
Organizing maps                        ...        0.001 sec (  0.0%)
RI 3-index integral generations        ...        2.915 sec ( 14.3%)
RI-PNO integral transformation         ...        8.791 sec ( 43.2%)
Initial Guess                          ...        0.287 sec (  1.4%)
DIIS Solver                            ...        0.023 sec (  0.1%)
State Vector Update                    ...        0.000 sec (  0.0%)
Sigma-vector construction              ...        6.467 sec ( 31.8%)
  <D|H|D>(0-ext)                       ...        0.031 sec (  0.5% of sigma)
  <D|H|D>(2-ext Fock)                  ...        0.002 sec (  0.0% of sigma)
  <D|H|D>(2-ext)                       ...        0.160 sec (  2.5% of sigma)
  <D|H|D>(4-ext)                       ...        1.042 sec ( 16.1% of sigma)
  <D|H|D>(4-ext-corr)                  ...        3.767 sec ( 58.2% of sigma)
  CCSD doubles correction              ...        0.002 sec (  0.0% of sigma)
  <S|H|S>                              ...        0.018 sec (  0.3% of sigma)
  <S|H|D>(1-ext)                       ...        0.006 sec (  0.1% of sigma)
  <S|H|D>(3-ext)                       ...        0.016 sec (  0.2% of sigma)
  Fock-dressing                        ...        0.119 sec (  1.8% of sigma)
  Singles amplitudes                   ...        0.005 sec (  0.1% of sigma)
  (ik|jl)-dressing                     ...        0.020 sec (  0.3% of sigma)
  (ij|ab),(ia|jb)-dressing             ...        0.184 sec (  2.8% of sigma)
One-particle density matrix            ...        0.206 sec (  1.0%)


-------------------------   --------------------
FINAL SINGLE POINT ENERGY      -342.689297374987
-------------------------   --------------------


                            ***************************************
                            *     ORCA property calculations      *
                            ***************************************

                                    ---------------------
                                    Active property flags
                                    ---------------------
   (+) Dipole Moment


------------------------------------------------------------------------------
                       ORCA ELECTRIC PROPERTIES CALCULATION
------------------------------------------------------------------------------

Dipole Moment Calculation                       ... on
Quadrupole Moment Calculation                   ... off
Polarizability Calculation                      ... off
GBWName                                         ... phosphine_DLPNO-CCSD_aug-cc-pVTZ_SPE.gbw
Electron density file                           ... phosphine_DLPNO-CCSD_aug-cc-pVTZ_SPE.scfp
The origin for moment calculation is the CENTER OF MASS  = (-0.126871, -0.179150  0.310598)

-------------
DIPOLE MOMENT
-------------
                                X             Y             Z
Electronic contribution:     -0.58017      -0.81999       1.42083
Nuclear contribution   :      0.67174       0.94940      -1.64507
                        -----------------------------------------
Total Dipole Moment    :      0.09156       0.12941      -0.22424
                        -----------------------------------------
Magnitude (a.u.)       :      0.27461
Magnitude (Debye)      :      0.69801



--------------------
Rotational spectrum 
--------------------
 
Rotational constants in cm-1:     4.509278     4.509246     3.941543 
Rotational constants in MHz : 135184.748469 135183.795210 118164.483428 

 Dipole components along the rotational axes: 
x,y,z [a.u.] :     0.000002     0.000002    -0.274614 
x,y,z [Debye]:     0.000004     0.000005    -0.698012 

 

                           *** MDCI DENSITY ***

------------------------------------------------------------------------------
                       ORCA ELECTRIC PROPERTIES CALCULATION
------------------------------------------------------------------------------

Dipole Moment Calculation                       ... on
Quadrupole Moment Calculation                   ... off
Polarizability Calculation                      ... off
GBWName                                         ... phosphine_DLPNO-CCSD_aug-cc-pVTZ_SPE.gbw
Electron density file                           ... phosphine_DLPNO-CCSD_aug-cc-pVTZ_SPE.mdcip
The origin for moment calculation is the CENTER OF MASS  = (-0.126871, -0.179150  0.310598)

-------------
DIPOLE MOMENT
-------------
                                X             Y             Z
Electronic contribution:     -0.58631      -0.82867       1.43587
Nuclear contribution   :      0.67174       0.94940      -1.64507
                        -----------------------------------------
Total Dipole Moment    :      0.08542       0.12073      -0.20920
                        -----------------------------------------
Magnitude (a.u.)       :      0.25620
Magnitude (Debye)      :      0.65121



--------------------
Rotational spectrum 
--------------------
 
Rotational constants in cm-1:     4.509278     4.509246     3.941543 
Rotational constants in MHz : 135184.748469 135183.795210 118164.483428 

 Dipole components along the rotational axes: 
x,y,z [a.u.] :     0.000002     0.000002    -0.256200 
x,y,z [Debye]:     0.000004     0.000005    -0.651208 

 

Timings for individual modules:

Sum of individual times         ...       53.386 sec (=   0.890 min)
GTO integral calculation        ...       25.821 sec (=   0.430 min)  48.4 %
SCF iterations                  ...        7.031 sec (=   0.117 min)  13.2 %
MDCI module                     ...       20.534 sec (=   0.342 min)  38.5 %
                             ****ORCA TERMINATED NORMALLY****
TOTAL RUN TIME: 0 days 0 hours 0 minutes 53 seconds 970 msec
