
                                 *****************
                                 * O   R   C   A *
                                 *****************

           --- An Ab Initio, DFT and Semiempirical electronic structure package ---

                  #######################################################
                  #                        -***-                        #
                  #          Department of theory and spectroscopy      #
                  #               Directorship: Frank Neese             #
                  #        Max Planck Institute fuer Kohlenforschung    #
                  #                Kaiser Wilhelm Platz 1               #
                  #                 D-45470 Muelheim/Ruhr               #
                  #                      Germany                        #
                  #                                                     #
                  #                  All rights reserved                #
                  #                        -***-                        #
                  #######################################################


                         Program Version 4.2.1 -  RELEASE  -


 With contributions from (in alphabetic order):
   Daniel Aravena         : Magnetic Suceptibility
   Michael Atanasov       : Ab Initio Ligand Field Theory (pilot matlab implementation)
   Alexander A. Auer      : GIAO ZORA, VPT2
   Ute Becker             : Parallelization
   Giovanni Bistoni       : ED, misc. LED, open-shell LED, HFLD
   Martin Brehm           : Molecular dynamics
   Dmytro Bykov           : SCF Hessian
   Vijay G. Chilkuri      : MRCI spin determinant printing, contributions to CSF-ICE
   Dipayan Datta          : RHF DLPNO-CCSD density
   Achintya Kumar Dutta   : EOM-CC, STEOM-CC
   Dmitry Ganyushin       : Spin-Orbit,Spin-Spin,Magnetic field MRCI
   Miquel Garcia          : C-PCM Hessian, Gaussian charge scheme
   Yang Guo               : DLPNO-NEVPT2, CIM, IAO-localization
   Andreas Hansen         : Spin unrestricted coupled pair/coupled cluster methods
   Benjamin Helmich-Paris : CASSCF linear response (MC-RPA)
   Lee Huntington         : MR-EOM, pCC
   Robert Izsak           : Overlap fitted RIJCOSX, COSX-SCS-MP3, EOM
   Christian Kollmar      : KDIIS, OOCD, Brueckner-CCSD(T), CCSD density
   Simone Kossmann        : Meta GGA functionals, TD-DFT gradient, OOMP2, MP2 Hessian
   Martin Krupicka        : AUTO-CI
   Lucas Lang             : DCDCAS
   Dagmar Lenk            : GEPOL surface, SMD
   Dimitrios Liakos       : Extrapolation schemes; Compound Job, initial MDCI parallelization
   Dimitrios Manganas     : Further ROCIS development; embedding schemes
   Dimitrios Pantazis     : SARC Basis sets
   Taras Petrenko         : DFT Hessian,TD-DFT gradient, ASA, ECA, R-Raman, ABS, FL, XAS/XES, NRVS
   Peter Pinski           : DLPNO-MP2, DLPNO-MP2 Gradient
   Christoph Reimann      : Effective Core Potentials
   Marius Retegan         : Local ZFS, SOC
   Christoph Riplinger    : Optimizer, TS searches, QM/MM, DLPNO-CCSD(T), (RO)-DLPNO pert. Triples
   Tobias Risthaus        : Range-separated hybrids, TD-DFT gradient, RPA, STAB
   Michael Roemelt        : Original ROCIS implementation
   Masaaki Saitow         : Open-shell DLPNO-CCSD energy and density
   Barbara Sandhoefer     : DKH picture change effects
   Avijit Sen             : IP-ROCIS
   Kantharuban Sivalingam : CASSCF convergence, NEVPT2, FIC-MRCI
   Bernardo de Souza      : ESD, SOC TD-DFT
   Georgi Stoychev        : AutoAux, RI-MP2 NMR
   Willem Van den Heuvel  : Paramagnetic NMR
   Boris Wezisla          : Elementary symmetry handling
   Frank Wennmohs         : Technical directorship


 We gratefully acknowledge several colleagues who have allowed us to
 interface, adapt or use parts of their codes:
   Stefan Grimme, W. Hujo, H. Kruse,             : VdW corrections, initial TS optimization,
                  C. Bannwarth                     DFT functionals, gCP, sTDA/sTD-DF
   Ed Valeev, F. Pavosevic, A. Kumar             : LibInt (2-el integral package), F12 methods
   Garnet Chan, S. Sharma, J. Yang, R. Olivares  : DMRG
   Ulf Ekstrom                                   : XCFun DFT Library
   Mihaly Kallay                                 : mrcc  (arbitrary order and MRCC methods)
   Andreas Klamt, Michael Diedenhofen            : otool_cosmo (COSMO solvation model)
   Jiri Pittner, Ondrej Demel                    : Mk-CCSD
   Frank Weinhold                                : gennbo (NPA and NBO analysis)
   Christopher J. Cramer and Donald G. Truhlar   : smd solvation model
   Lars Goerigk                                  : TD-DFT with DH, B97 family of functionals
   V. Asgeirsson, H. Jonsson                     : NEB implementation
   FAccTs GmbH                                   : IRC, NEB, NEB-TS, Multilevel, MM, QM/MM, CI optimization
   S Lehtola, MJT Oliveira, MAL Marques          : LibXC Library


 Your calculation uses the libint2 library for the computation of 2-el integrals
 For citations please refer to: http://libint.valeyev.net

 Your ORCA version has been built with support for libXC version: 4.2.3
 For citations please refer to: https://tddft.org/programs/libxc/

 This ORCA versions uses:
   CBLAS   interface :  Fast vector & matrix operations
   LAPACKE interface :  Fast linear algebra routines
   SCALAPACK package :  Parallel linear algebra routines




***************************************
The coordinates will be read from file: phosphine_MP2_aug-cc-pVTZ_OPT.xyz
***************************************


----- Orbital basis set information -----
Your calculation utilizes the basis: aug-cc-pVTZ 
    H, B-Ne : Obtained from the ccRepo (grant-hill.group.shef.ac.uk/ccrepo) Feb. 2017
              R. A. Kendall, T. H. Dunning, Jr., R. J. Harrison, J. Chem. Phys. 96, 6796 (1992)
         He : Obtained from the ccRepo (grant-hill.group.shef.ac.uk/ccrepo) Feb. 2017
              D. E. Woon, T. H. Dunning, Jr., J. Chem. Phys. 100, 2975 (1994)
  Li-Be, Na : Obtained from the ccRepo (grant-hill.group.shef.ac.uk/ccrepo) Feb. 2017
              B. P. Prascher, D. E. Woon, K. A. Peterson, T. H. Dunning, Jr., A. K. Wilson, Theor. Chem. Acc. 128, 69 (2011)
         Mg : Obtained from the Peterson Research Group Website (tyr0.chem.wsu.edu/~kipeters) Feb. 2017
              B. P. Prascher, D. E. Woon, K. A. Peterson, T. H. Dunning, Jr., A. K. Wilson, Theor. Chem. Acc. 128, 69 (2011)
      Al-Ar : Obtained from the ccRepo (grant-hill.group.shef.ac.uk/ccrepo) Feb. 2017
              D. E. Woon, T. H. Dunning, Jr., J. Chem. Phys. 98, 1358 (1993)
      Sc-Zn : Obtained from the ccRepo (grant-hill.group.shef.ac.uk/ccrepo) Feb. 2017
              N. B. Balabanov, K. A. Peterson, J. Chem. Phys. 123, 064107 (2005)
              N. B. Balabanov, K. A. Peterson, J. Chem. Phys. 125, 074110 (2006)
      Ga-Kr : Obtained from the ccRepo (grant-hill.group.shef.ac.uk/ccrepo) Feb. 2017
              A. K. Wilson, D. E. Woon, K. A. Peterson, T. H. Dunning, Jr., J. Chem. Phys. 110, 7667 (1999)
     Ag, Au : Obtained from the Peterson Research Group Website (tyr0.chem.wsu.edu/~kipeters) Feb. 2017
              K. A. Peterson, C. Puzzarini, Theor. Chem. Acc. 114, 283 (2005)

================================================================================
                                        WARNINGS
                       Please study these warnings very carefully!
================================================================================


WARNING: MDCI localization with Augmented Hessian Foster-Boys
  ===> : Switching off randomization!

WARNING: Post HF methods need fully converged wavefunctions
  ===> : Setting SCFConvForced true
         You can overwrite this default with %scf ConvForced false 


INFO   : the flag for use of LIBINT has been found!

================================================================================
                                       INPUT FILE
================================================================================
NAME = phosphine_CCSD_aug-cc-pVTZ_SPE.inp
|  1> # phosphine CCSD/aug-cc-pVTZ SPE
|  2> 
|  3> ! CCSD aug-cc-pVTZ TightSCF PAL8
|  4> %maxcore 1000
|  5> 
|  6> * xyzfile 0 1 phosphine_MP2_aug-cc-pVTZ_OPT.xyz
|  7> 
|  8> 
|  9>                          ****END OF INPUT****
================================================================================

                       ****************************
                       * Single Point Calculation *
                       ****************************

---------------------------------
CARTESIAN COORDINATES (ANGSTROEM)
---------------------------------
  P     -0.089738   -0.126745    0.219710
  H     -0.396186    1.223529   -0.059443
  H     -0.396304   -0.560508   -1.089084
  H      1.285558    0.034114   -0.059153

----------------------------
CARTESIAN COORDINATES (A.U.)
----------------------------
  NO LB      ZA    FRAG     MASS         X           Y           Z
   0 P    15.0000    0    30.974   -0.169580   -0.239513    0.415192
   1 H     1.0000    0     1.008   -0.748683    2.312135   -0.112332
   2 H     1.0000    0     1.008   -0.748907   -1.059207   -2.058071
   3 H     1.0000    0     1.008    2.429352    0.064466   -0.111782

--------------------------------
INTERNAL COORDINATES (ANGSTROEM)
--------------------------------
 P      0   0   0     0.000000000000     0.00000000     0.00000000
 H      1   0   0     1.412472218301     0.00000000     0.00000000
 H      1   2   0     1.412471746650    93.63239542     0.00000000
 H      1   2   3     1.412472278625    93.63266449    93.87912420

---------------------------
INTERNAL COORDINATES (A.U.)
---------------------------
 P      0   0   0     0.000000000000     0.00000000     0.00000000
 H      1   0   0     2.669185664361     0.00000000     0.00000000
 H      1   2   0     2.669184773069    93.63239542     0.00000000
 H      1   2   3     2.669185778356    93.63266449    93.87912420

---------------------
BASIS SET INFORMATION
---------------------
There are 2 groups of distinct atoms

 Group   1 Type P   : 42s17p3d2f contracted to 6s5p3d2f pattern {131313111/77111/111/11}
 Group   2 Type H   : 6s3p2d contracted to 4s3p2d pattern {3111/111/11}

Atom   0P    basis set group =>   1
Atom   1H    basis set group =>   2
Atom   2H    basis set group =>   2
Atom   3H    basis set group =>   2


           ************************************************************
           *        Program running with 8 parallel MPI-processes     *
           *              working on a common directory               *
           ************************************************************
------------------------------------------------------------------------------
                           ORCA GTO INTEGRAL CALCULATION
------------------------------------------------------------------------------

                         BASIS SET STATISTICS AND STARTUP INFO

 # of primitive gaussian shells          ...   97
 # of primitive gaussian functions       ...  197
 # of contracted shells                  ...   43
 # of contracted basis functions         ...  119
 Highest angular momentum                ...    3
 Maximum contraction depth               ...   13
 Integral package used                   ... LIBINT
 Integral threshhold            Thresh   ...  2.500e-11
 Primitive cut-off              TCut     ...  2.500e-12


------------------------------ INTEGRAL EVALUATION ----------------------------


 * One electron integrals 
 Pre-screening matrix                    ... done
 Shell pair data                         ... done (   0.000 sec)



           ************************************************************
           *        Program running with 8 parallel MPI-processes     *
           *              working on a common directory               *
           ************************************************************
-------------------------------------------------------------------------------
                                 ORCA SCF
-------------------------------------------------------------------------------

------------
SCF SETTINGS
------------
Hamiltonian:
 Ab initio Hamiltonian  Method          .... Hartree-Fock(GTOs)


General Settings:
 Integral files         IntName         .... phosphine_CCSD_aug-cc-pVTZ_SPE
 Hartree-Fock type      HFTyp           .... RHF
 Total Charge           Charge          ....    0
 Multiplicity           Mult            ....    1
 Number of Electrons    NEL             ....   18
 Basis Dimension        Dim             ....  119
 Nuclear Repulsion      ENuc            ....     17.6297796456 Eh

Convergence Acceleration:
 DIIS                   CNVDIIS         .... on
   Start iteration      DIISMaxIt       ....    12
   Startup error        DIISStart       ....  0.200000
   # of expansion vecs  DIISMaxEq       ....     5
   Bias factor          DIISBfac        ....   1.050
   Max. coefficient     DIISMaxC        ....  10.000
 Newton-Raphson         CNVNR           .... off
 SOSCF                  CNVSOSCF        .... on
   Start iteration      SOSCFMaxIt      ....   150
   Startup grad/error   SOSCFStart      ....  0.003300
 Level Shifting         CNVShift        .... on
   Level shift para.    LevelShift      ....    0.2500
   Turn off err/grad.   ShiftErr        ....    0.0010
 Zerner damping         CNVZerner       .... off
 Static damping         CNVDamp         .... on
   Fraction old density DampFac         ....    0.7000
   Max. Damping (<1)    DampMax         ....    0.9800
   Min. Damping (>=0)   DampMin         ....    0.0000
   Turn off err/grad.   DampErr         ....    0.1000
 Fernandez-Rico         CNVRico         .... off

SCF Procedure:
 Maximum # iterations   MaxIter         ....   125
 SCF integral mode      SCFMode         .... Direct
   Integral package                     .... LIBINT
 Reset frequency        DirectResetFreq ....    20
 Integral Threshold     Thresh          ....  2.500e-11 Eh
 Primitive CutOff       TCut            ....  2.500e-12 Eh

Convergence Tolerance:
 Convergence Check Mode ConvCheckMode   .... Total+1el-Energy
 Convergence forced     ConvForced      .... 1
 Energy Change          TolE            ....  1.000e-08 Eh
 1-El. energy change                    ....  1.000e-05 Eh
 Orbital Gradient       TolG            ....  1.000e-05
 Orbital Rotation angle TolX            ....  1.000e-05
 DIIS Error             TolErr          ....  5.000e-07


Diagonalization of the overlap matrix:
Smallest eigenvalue                        ... 1.907e-04
Time for diagonalization                   ...    0.003 sec
Threshold for overlap eigenvalues          ... 1.000e-08
Number of eigenvalues below threshold      ... 0
Time for construction of square roots      ...    0.002 sec
Total time needed                          ...    0.005 sec

-------------------
DFT GRID GENERATION
-------------------

General Integration Accuracy     IntAcc      ...  4.340
Radial Grid Type                 RadialGrid  ... Gauss-Chebyshev
Angular Grid (max. acc.)         AngularGrid ... Lebedev-110
Angular grid pruning method      GridPruning ... 3 (G Style)
Weight generation scheme         WeightScheme... Becke
Basis function cutoff            BFCut       ...    1.0000e-11
Integration weight cutoff        WCut        ...    1.0000e-14
Grids for H and He will be reduced by one unit

# of grid points (after initial pruning)     ...   4188 (   0.0 sec)
# of grid points (after weights+screening)   ...   4139 (   0.0 sec)
nearest neighbour list constructed           ...    0.0 sec
Grid point re-assignment to atoms done       ...    0.0 sec
Grid point division into batches done        ...    0.0 sec
Reduced shell lists constructed in    0.0 sec

Total number of grid points                  ...     4139
Total number of batches                      ...       67
Average number of points per batch           ...       61
Average number of grid points per atom       ...     1035
Average number of shells per batch           ...    36.70 (85.35%)
Average number of basis functions per batch  ...   101.30 (85.13%)
Average number of large shells per batch     ...    34.30 (93.46%)
Average number of large basis fcns per batch ...    95.50 (94.27%)
Maximum spatial batch extension              ...  20.99, 18.96, 17.83 au
Average spatial batch extension              ...   0.95,  0.89,  0.84 au

Time for grid setup =    0.008 sec

------------------------------
INITIAL GUESS: MODEL POTENTIAL
------------------------------
Loading Hartree-Fock densities                     ... done
Calculating cut-offs                               ... done
Setting up the integral package                    ... done
Initializing the effective Hamiltonian             ... done
Starting the Coulomb interaction                   ... done (   0.0 sec)
Reading the grid                                   ... done
Mapping shells                                     ... done
Starting the XC term evaluation                    ... done (   0.0 sec)
Transforming the Hamiltonian                       ... done (   0.0 sec)
Diagonalizing the Hamiltonian                      ... done (   0.0 sec)
Back transforming the eigenvectors                 ... done (   0.0 sec)
Now organizing SCF variables                       ... done
                      ------------------
                      INITIAL GUESS DONE (   0.1 sec)
                      ------------------
--------------
SCF ITERATIONS
--------------
ITER       Energy         Delta-E        Max-DP      RMS-DP      [F,P]     Damp
               ***  Starting incremental Fock matrix formation  ***
  0   -342.4536080044   0.000000000000 0.07260606  0.00113340  0.1194785 0.7000
  1   -342.4634634847  -0.009855480384 0.05193411  0.00092035  0.0876451 0.7000
                               ***Turning on DIIS***
  2   -342.4705663132  -0.007102828428 0.12240814  0.00235603  0.0621263 0.0000
  3   -342.4884143338  -0.017848020625 0.04033961  0.00055096  0.0094596 0.0000
  4   -342.4766309090   0.011783424780 0.01208430  0.00017895  0.0041806 0.0000
                      *** Initiating the SOSCF procedure ***
                           *** Shutting down DIIS ***
                      *** Re-Reading the Fockian *** 
                      *** Removing any level shift *** 
ITER      Energy       Delta-E        Grad      Rot      Max-DP    RMS-DP
  5   -342.48902987  -0.0123989560  0.001563  0.001563  0.001901  0.000046
               *** Restarting incremental Fock matrix formation ***
  6   -342.48787842   0.0011514430  0.000479  0.000813  0.000533  0.000015
  7   -342.48788155  -0.0000031242  0.000195  0.000574  0.000192  0.000010
  8   -342.48788222  -0.0000006722  0.000012  0.000014  0.000131  0.000002
  9   -342.48788222  -0.0000000028  0.000003  0.000005  0.000038  0.000000
                 **** Energy Check signals convergence ****
              ***Rediagonalizing the Fockian in SOSCF/NRSCF***

               *****************************************************
               *                     SUCCESS                       *
               *           SCF CONVERGED AFTER  10 CYCLES          *
               *****************************************************


----------------
TOTAL SCF ENERGY
----------------

Total Energy       :         -342.48788222 Eh           -9319.56907 eV

Components:
Nuclear Repulsion  :           17.62977965 Eh             479.73069 eV
Electronic Energy  :         -360.11766187 Eh           -9799.29977 eV
One Electron Energy:         -508.50435513 Eh          -13837.10697 eV
Two Electron Energy:          148.38669326 Eh            4037.80720 eV

Virial components:
Potential Energy   :         -684.94946512 Eh          -18638.42251 eV
Kinetic Energy     :          342.46158290 Eh            9318.85343 eV
Virial Ratio       :            2.00007679


---------------
SCF CONVERGENCE
---------------

  Last Energy change         ...   -1.5228e-10  Tolerance :   1.0000e-08
  Last MAX-Density change    ...    5.4456e-06  Tolerance :   1.0000e-07
  Last RMS-Density change    ...    7.5287e-08  Tolerance :   5.0000e-09
  Last Orbital Gradient      ...    3.3380e-07  Tolerance :   1.0000e-05
  Last Orbital Rotation      ...    3.8951e-07  Tolerance :   1.0000e-05

             **** THE GBW FILE WAS UPDATED (phosphine_CCSD_aug-cc-pVTZ_SPE.gbw) ****
             **** DENSITY FILE WAS UPDATED (phosphine_CCSD_aug-cc-pVTZ_SPE.scfp) ****
             **** ENERGY FILE WAS UPDATED (phosphine_CCSD_aug-cc-pVTZ_SPE.en.tmp) ****
             **** THE GBW FILE WAS UPDATED (phosphine_CCSD_aug-cc-pVTZ_SPE.gbw) ****
             **** DENSITY FILE WAS UPDATED (phosphine_CCSD_aug-cc-pVTZ_SPE.scfp) ****
----------------
ORBITAL ENERGIES
----------------

  NO   OCC          E(Eh)            E(eV) 
   0   2.0000     -79.944796     -2175.4085 
   1   2.0000      -7.487933      -203.7570 
   2   2.0000      -5.381361      -146.4343 
   3   2.0000      -5.381361      -146.4343 
   4   2.0000      -5.380454      -146.4096 
   5   2.0000      -0.856750       -23.3134 
   6   2.0000      -0.522614       -14.2210 
   7   2.0000      -0.522612       -14.2210 
   8   2.0000      -0.387598       -10.5471 
   9   0.0000       0.029281         0.7968 
  10   0.0000       0.053603         1.4586 
  11   0.0000       0.053603         1.4586 
  12   0.0000       0.081946         2.2299 
  13   0.0000       0.090625         2.4660 
  14   0.0000       0.090625         2.4660 
  15   0.0000       0.137936         3.7534 
  16   0.0000       0.168622         4.5885 
  17   0.0000       0.168623         4.5885 
  18   0.0000       0.199814         5.4372 
  19   0.0000       0.199815         5.4372 
  20   0.0000       0.201673         5.4878 
  21   0.0000       0.275636         7.5004 
  22   0.0000       0.275636         7.5004 
  23   0.0000       0.292297         7.9538 
  24   0.0000       0.308408         8.3922 
  25   0.0000       0.308408         8.3922 
  26   0.0000       0.325190         8.8489 
  27   0.0000       0.326962         8.8971 
  28   0.0000       0.326963         8.8971 
  29   0.0000       0.332596         9.0504 
  30   0.0000       0.380960        10.3664 
  31   0.0000       0.380960        10.3664 
  32   0.0000       0.384870        10.4728 
  33   0.0000       0.566354        15.4113 
  34   0.0000       0.566354        15.4113 
  35   0.0000       0.567797        15.4505 
  36   0.0000       0.601368        16.3640 
  37   0.0000       0.601368        16.3641 
  38   0.0000       0.629313        17.1245 
  39   0.0000       0.659818        17.9546 
  40   0.0000       0.668688        18.1959 
  41   0.0000       0.731469        19.9043 
  42   0.0000       0.731469        19.9043 
  43   0.0000       0.749254        20.3882 
  44   0.0000       0.766594        20.8601 
  45   0.0000       0.766595        20.8601 
  46   0.0000       0.783947        21.3323 
  47   0.0000       0.783947        21.3323 
  48   0.0000       0.863544        23.4982 
  49   0.0000       0.934981        25.4421 
  50   0.0000       0.934981        25.4421 
  51   0.0000       0.968730        26.3605 
  52   0.0000       0.976765        26.5791 
  53   0.0000       1.005313        27.3559 
  54   0.0000       1.005313        27.3560 
  55   0.0000       1.028339        27.9825 
  56   0.0000       1.028341        27.9826 
  57   0.0000       1.037178        28.2230 
  58   0.0000       1.148797        31.2603 
  59   0.0000       1.148797        31.2604 
  60   0.0000       1.173714        31.9384 
  61   0.0000       1.200927        32.6789 
  62   0.0000       1.200927        32.6789 
  63   0.0000       1.265541        34.4371 
  64   0.0000       1.265541        34.4371 
  65   0.0000       1.275714        34.7140 
  66   0.0000       1.467362        39.9289 
  67   0.0000       1.506110        40.9833 
  68   0.0000       1.506111        40.9834 
  69   0.0000       1.512801        41.1654 
  70   0.0000       1.631878        44.4057 
  71   0.0000       1.631879        44.4057 
  72   0.0000       1.649026        44.8723 
  73   0.0000       1.678976        45.6873 
  74   0.0000       1.678976        45.6873 
  75   0.0000       1.787859        48.6501 
  76   0.0000       1.787859        48.6501 
  77   0.0000       1.788935        48.6794 
  78   0.0000       1.888021        51.3757 
  79   0.0000       2.004517        54.5457 
  80   0.0000       2.162277        58.8386 
  81   0.0000       2.162280        58.8386 
  82   0.0000       2.175652        59.2025 
  83   0.0000       2.272157        61.8285 
  84   0.0000       2.272161        61.8286 
  85   0.0000       2.316738        63.0416 
  86   0.0000       2.424205        65.9660 
  87   0.0000       2.424205        65.9660 
  88   0.0000       2.698500        73.4299 
  89   0.0000       2.917881        79.3996 
  90   0.0000       2.917884        79.3997 
  91   0.0000       3.457585        94.0857 
  92   0.0000       3.589018        97.6622 
  93   0.0000       3.589019        97.6622 
  94   0.0000       3.903170       106.2107 
  95   0.0000       3.903170       106.2107 
  96   0.0000       3.921084       106.6981 
  97   0.0000       3.990402       108.5844 
  98   0.0000       3.990402       108.5844 
  99   0.0000       4.124389       112.2303 
 100   0.0000       4.136480       112.5593 
 101   0.0000       4.136483       112.5594 
 102   0.0000       4.206627       114.4681 
 103   0.0000       4.320273       117.5606 
 104   0.0000       4.446868       121.0054 
 105   0.0000       4.446871       121.0055 
 106   0.0000       4.486125       122.0737 
 107   0.0000       4.529609       123.2569 
 108   0.0000       4.529611       123.2570 
 109   0.0000       4.547314       123.7387 
 110   0.0000       4.670115       127.0803 
 111   0.0000       4.762688       129.5993 
 112   0.0000       4.762691       129.5994 
 113   0.0000       4.818279       131.1120 
 114   0.0000       4.818279       131.1120 
 115   0.0000       4.873105       132.6039 
 116   0.0000       5.355559       145.7322 
 117   0.0000       5.355559       145.7322 
 118   0.0000       8.527485       232.0447 

                    ********************************
                    * MULLIKEN POPULATION ANALYSIS *
                    ********************************

-----------------------
MULLIKEN ATOMIC CHARGES
-----------------------
   0 P :   -0.258739
   1 H :    0.086246
   2 H :    0.086247
   3 H :    0.086246
Sum of atomic charges:    0.0000000

--------------------------------
MULLIKEN REDUCED ORBITAL CHARGES
--------------------------------
  0 P s       :     5.569355  s :     5.569355
      pz      :     3.293567  p :     9.413886
      px      :     3.034282
      py      :     3.086037
      dz2     :     0.088508  d :     0.256636
      dxz     :     0.021626
      dyz     :     0.030041
      dx2y2   :     0.102420
      dxy     :     0.014040
      f0      :     0.004645  f :     0.018863
      f+1     :     0.002305
      f-1     :     0.002815
      f+2     :     0.002257
      f-2     :     0.000587
      f+3     :     0.003037
      f-3     :     0.003218
  1 H s       :     0.904974  s :     0.904974
      pz      :     0.000137  p :     0.008504
      px      :    -0.002773
      py      :     0.011140
      dz2     :    -0.000065  d :     0.000276
      dxz     :     0.000090
      dyz     :     0.000142
      dx2y2   :    -0.000134
      dxy     :     0.000242
  2 H s       :     0.904973  s :     0.904973
      pz      :     0.010528  p :     0.008504
      px      :    -0.002771
      py      :     0.000747
      dz2     :     0.000864  d :     0.000276
      dxz     :     0.000522
      dyz     :     0.000335
      dx2y2   :    -0.001255
      dxy     :    -0.000190
  3 H s       :     0.904973  s :     0.904973
      pz      :     0.000137  p :     0.008504
      px      :     0.012517
      py      :    -0.004150
      dz2     :    -0.000065  d :     0.000276
      dxz     :     0.000218
      dyz     :     0.000014
      dx2y2   :     0.000349
      dxy     :    -0.000241


                     *******************************
                     * LOEWDIN POPULATION ANALYSIS *
                     *******************************

----------------------
LOEWDIN ATOMIC CHARGES
----------------------
   0 P :    1.326833
   1 H :   -0.442278
   2 H :   -0.442278
   3 H :   -0.442277

-------------------------------
LOEWDIN REDUCED ORBITAL CHARGES
-------------------------------
  0 P s       :     4.759644  s :     4.759644
      pz      :     2.959954  p :     8.482742
      px      :     2.739380
      py      :     2.783408
      dz2     :     0.107106  d :     0.350031
      dxz     :     0.026163
      dyz     :     0.046408
      dx2y2   :     0.142474
      dxy     :     0.027881
      f0      :     0.015638  f :     0.080750
      f+1     :     0.011052
      f-1     :     0.014220
      f+2     :     0.007486
      f-2     :     0.002791
      f+3     :     0.017494
      f-3     :     0.012069
  1 H s       :     0.829672  s :     0.829672
      pz      :     0.123971  p :     0.397665
      px      :     0.092589
      py      :     0.181106
      dz2     :     0.017482  d :     0.214941
      dxz     :     0.002426
      dyz     :     0.081323
      dx2y2   :     0.057688
      dxy     :     0.056022
  2 H s       :     0.829672  s :     0.829672
      pz      :     0.201564  p :     0.397665
      px      :     0.092591
      py      :     0.103510
      dz2     :     0.081599  d :     0.214941
      dxz     :     0.049549
      dyz     :     0.053735
      dx2y2   :     0.021162
      dxy     :     0.008896
  3 H s       :     0.829673  s :     0.829673
      pz      :     0.123962  p :     0.397664
      px      :     0.177949
      py      :     0.095753
      dz2     :     0.017478  d :     0.214940
      dxz     :     0.078466
      dyz     :     0.005280
      dx2y2   :     0.042250
      dxy     :     0.071465


                      *****************************
                      * MAYER POPULATION ANALYSIS *
                      *****************************

  NA   - Mulliken gross atomic population
  ZA   - Total nuclear charge
  QA   - Mulliken gross atomic charge
  VA   - Mayer's total valence
  BVA  - Mayer's bonded valence
  FA   - Mayer's free valence

  ATOM       NA         ZA         QA         VA         BVA        FA
  0 P     15.2587    15.0000    -0.2587     2.9562     2.9562     0.0000
  1 H      0.9138     1.0000     0.0862     0.9830     0.9830    -0.0000
  2 H      0.9138     1.0000     0.0862     0.9830     0.9830    -0.0000
  3 H      0.9138     1.0000     0.0862     0.9830     0.9830    -0.0000

  Mayer bond orders larger than 0.100000
B(  0-P ,  1-H ) :   0.9854 B(  0-P ,  2-H ) :   0.9854 B(  0-P ,  3-H ) :   0.9854 


-------
TIMINGS
-------

Total SCF time: 0 days 0 hours 0 min 4 sec 

Total time                  ....       4.129 sec
Sum of individual times     ....       3.933 sec  ( 95.2%)

Fock matrix formation       ....       3.486 sec  ( 84.4%)
Diagonalization             ....       0.019 sec  (  0.5%)
Density matrix formation    ....       0.267 sec  (  6.5%)
Population analysis         ....       0.003 sec  (  0.1%)
Initial guess               ....       0.083 sec  (  2.0%)
Orbital Transformation      ....       0.000 sec  (  0.0%)
Orbital Orthonormalization  ....       0.000 sec  (  0.0%)
DIIS solution               ....       0.012 sec  (  0.3%)
SOSCF solution              ....       0.054 sec  (  1.3%)


           ************************************************************
           *        Program running with 8 parallel MPI-processes     *
           *              working on a common directory               *
           ************************************************************


------------------------------------------------------------------------------- 
                              ORCA-MATRIX DRIVEN CI                            
------------------------------------------------------------------------------- 

--------------------------------
AUTOMATIC CHOICE OF INCORE LEVEL
--------------------------------

Memory available                           ...    500.00 MB
Memory needed for S+T                      ...      2.77 MB
Memory needed for J+K                      ...      5.56 MB
Memory needed for DIIS                     ...     38.77 MB
Memory needed for 3-ext                    ...     40.62 MB
Memory needed for 4-ext                    ...    563.59 MB
Memory needed for triples                  ...      0.00 MB
 -> Final InCoreLevel    ... 4

Wavefunction type
-----------------
Correlation treatment                      ...      CCSD     
Single excitations                         ... ON
Orbital optimization                       ... OFF
Calculation of Z vector                    ... OFF
Calculation of Brueckner orbitals          ... OFF
Perturbative triple excitations            ... OFF
Calculation of F12 correction              ... OFF
Frozen core treatment                      ... chemical core (10 el)
Reference Wavefunction                     ... RHF
  Internal Orbitals:     5 ...    8 (  4 MO's/  8 electrons)
  Virtual  Orbitals:     9 ...  118 (110 MO's              )
Number of AO's                             ...    119
Number of electrons                        ...     18
Number of correlated electrons             ...      8

Algorithmic settings
--------------------
Integral transformation                    ... AO direct full transformation
K(C) Formation                             ... FULL-MO TRAFO
Maximum number of iterations               ...        50
Convergence tolerance (max. residuum)      ... 1.000e-05
Level shift for amplitude update           ... 2.000e-01
Maximum number of DIIS vectors             ...         7
DIIS turned on at iteration                ...         0
Damping before turning on DIIS             ...     0.500
Damping after turning on DIIS              ...     0.000
Pair specific amplitude update             ... OFF
Natural orbital iterations                 ... OFF
Perturbative natural orbital generation    ... OFF
Printlevel                                 ... 2

Memory handling:
----------------
Maximum memory for working arrays          ...    500 MB
Data storage in matrix containers          ... UNCOMPRESSED
Data type for integral storage             ... DOUBLE
In-Core Storage of quantities:
   Amplitudes+Sigma Vector      ... YES
   J+K operators                ... YES
   DIIS vectors                 ... YES
   3-external integrals         ... YES
   4-external integrals         ... NO


Initializing the integral package          ... done
Warning: reference  - re-canonicalizations have been set to INT 1 VIRT 1

--------------------------
CLOSED-SHELL FOCK OPERATOR
--------------------------

<ss|ss>:        14706 b            0 skpd (  0.0%)    0.007 s ( 0.000 ms/b)
<ss|sp>:        43092 b            0 skpd (  0.0%)    0.038 s ( 0.001 ms/b)
<ss|sd>:        27702 b            0 skpd (  0.0%)    0.016 s ( 0.001 ms/b)
<ss|sf>:         6156 b            0 skpd (  0.0%)    0.007 s ( 0.001 ms/b)
<ss|pp>:        17955 b            0 skpd (  0.0%)    0.016 s ( 0.001 ms/b)
<ss|pd>:        21546 b            0 skpd (  0.0%)    0.009 s ( 0.000 ms/b)
<ss|pf>:         4788 b            0 skpd (  0.0%)    0.005 s ( 0.001 ms/b)
<ss|dd>:         7695 b            0 skpd (  0.0%)    0.004 s ( 0.000 ms/b)
<ss|df>:         3078 b            0 skpd (  0.0%)    0.002 s ( 0.001 ms/b)
<ss|ff>:          513 b            0 skpd (  0.0%)    0.001 s ( 0.003 ms/b)
<sp|sp>:        31878 b            0 skpd (  0.0%)    0.018 s ( 0.001 ms/b)
<sp|sd>:        40824 b            0 skpd (  0.0%)    0.022 s ( 0.001 ms/b)
<sp|sf>:         9072 b            6 skpd (  0.1%)    0.010 s ( 0.001 ms/b)
<sp|pp>:        26460 b            7 skpd (  0.0%)    0.035 s ( 0.001 ms/b)
<sp|pd>:        31752 b            0 skpd (  0.0%)    0.020 s ( 0.001 ms/b)
<sp|pf>:         7056 b            0 skpd (  0.0%)    0.010 s ( 0.001 ms/b)
<sp|dd>:        11340 b            0 skpd (  0.0%)    0.009 s ( 0.001 ms/b)
<sp|df>:         4536 b            0 skpd (  0.0%)    0.005 s ( 0.001 ms/b)
<sp|ff>:          756 b            0 skpd (  0.0%)    0.002 s ( 0.003 ms/b)
<sd|sd>:        13203 b            0 skpd (  0.0%)    0.010 s ( 0.001 ms/b)
<sd|sf>:         5832 b            0 skpd (  0.0%)    0.009 s ( 0.001 ms/b)
<sd|pp>:        17010 b            3 skpd (  0.0%)    0.019 s ( 0.001 ms/b)
<sd|pd>:        20412 b            0 skpd (  0.0%)    0.017 s ( 0.001 ms/b)
<sd|pf>:         4536 b            0 skpd (  0.0%)    0.005 s ( 0.001 ms/b)
<sd|dd>:         7290 b            0 skpd (  0.0%)    0.006 s ( 0.001 ms/b)
<sd|df>:         2916 b            0 skpd (  0.0%)    0.004 s ( 0.002 ms/b)
<sd|ff>:          486 b            0 skpd (  0.0%)    0.002 s ( 0.005 ms/b)
<sf|sf>:          666 b            1 skpd (  0.2%)    0.002 s ( 0.003 ms/b)
<sf|pp>:         3780 b            6 skpd (  0.2%)    0.009 s ( 0.002 ms/b)
<sf|pd>:         4536 b            6 skpd (  0.1%)    0.007 s ( 0.001 ms/b)
<sf|pf>:         1008 b            0 skpd (  0.0%)    0.002 s ( 0.002 ms/b)
<sf|dd>:         1620 b            3 skpd (  0.2%)    0.002 s ( 0.001 ms/b)
<sf|df>:          648 b            0 skpd (  0.0%)    0.002 s ( 0.003 ms/b)
<sf|ff>:          108 b            0 skpd (  0.0%)    0.001 s ( 0.011 ms/b)
<pp|pp>:         5565 b            0 skpd (  0.0%)    0.011 s ( 0.002 ms/b)
<pp|pd>:        13230 b            0 skpd (  0.0%)    0.013 s ( 0.001 ms/b)
<pp|pf>:         2940 b            0 skpd (  0.0%)    0.005 s ( 0.002 ms/b)
<pp|dd>:         4725 b            0 skpd (  0.0%)    0.005 s ( 0.001 ms/b)
<pp|df>:         1890 b            0 skpd (  0.0%)    0.004 s ( 0.002 ms/b)
<pp|ff>:          315 b            0 skpd (  0.0%)    0.002 s ( 0.007 ms/b)
<pd|pd>:         8001 b            0 skpd (  0.0%)    0.011 s ( 0.001 ms/b)
<pd|pf>:         3528 b            0 skpd (  0.0%)    0.007 s ( 0.002 ms/b)
<pd|dd>:         5670 b            0 skpd (  0.0%)    0.010 s ( 0.002 ms/b)
<pd|df>:         2268 b            0 skpd (  0.0%)    0.008 s ( 0.003 ms/b)
<pd|ff>:          378 b            0 skpd (  0.0%)    0.004 s ( 0.010 ms/b)
<pf|pf>:          406 b            0 skpd (  0.0%)    0.002 s ( 0.005 ms/b)
<pf|dd>:         1260 b            0 skpd (  0.0%)    0.003 s ( 0.003 ms/b)
<pf|df>:          504 b            0 skpd (  0.0%)    0.003 s ( 0.006 ms/b)
<pf|ff>:           84 b            0 skpd (  0.0%)    0.002 s ( 0.020 ms/b)
<dd|dd>:         1035 b            0 skpd (  0.0%)    0.003 s ( 0.003 ms/b)
<dd|df>:          810 b            0 skpd (  0.0%)    0.004 s ( 0.005 ms/b)
<dd|ff>:          135 b            0 skpd (  0.0%)    0.002 s ( 0.017 ms/b)
<df|df>:          171 b            0 skpd (  0.0%)    0.002 s ( 0.010 ms/b)
<df|ff>:           54 b            0 skpd (  0.0%)    0.002 s ( 0.032 ms/b)
<ff|ff>:            6 b            0 skpd (  0.0%)    0.000 s ( 0.078 ms/b)
Recanonicalizing the internal orbitals
Recanonicalizing the virtual orbitals
Time needed for Fock operator              ...            0.446 sec
Reference energy                           ...   -342.487882221
<ss|**>: 
------------------------------
PARTIAL COULOMB TRANSFORMATION
------------------------------

Transformation type                        ... one-operator
Dimension of the basis                     ...  119
Number of internal MOs                     ...  114 (5-118)
Pair cutoff                                ... 0.000e+00 Eh
Number of AO pairs included in the trafo   ... 7140
Total Number of distinct AO pairs          ... 7140
Memory devoted for trafo                   ...  500.0 MB 
Max. Number of MO pairs treated together   ... 9178      
Max. Number of MOs treated per batch       ...   77      
Number Format for Storage                  ... Double (8 Byte)
AO-integral source                         ... DIRECT
Integral package used                      ... LIBINT

Starting integral evaluation:
      161766 b        0 skpd     0.177 s (  0.001 ms/b)
<sp|**>:       238392 b        0 skpd     1.098 s (  0.005 ms/b)
<sd|**>:       153252 b        0 skpd     3.860 s (  0.025 ms/b)
<sf|**>:        34056 b        0 skpd     2.216 s (  0.065 ms/b)
<pp|**>:        99330 b        0 skpd    12.263 s (  0.123 ms/b)
<pd|**>:       119196 b        0 skpd     8.181 s (  0.069 ms/b)
<pf|**>:        26488 b        0 skpd     2.597 s (  0.098 ms/b)
<dd|**>:        42570 b        0 skpd     4.337 s (  0.102 ms/b)
<df|**>:        17028 b        0 skpd     2.987 s (  0.175 ms/b)
<ff|**>:         2838 b        0 skpd     1.019 s (  0.359 ms/b)
Closing buffer AOJ ( 0.05 GB; CompressionRatio= 1.00)
Collecting buffer AOJ 
    ... done with AO integral generation
Number of MO pairs included in the trafo   ... 6555
    ... Now sorting integrals
IBATCH = 1 of  1
Closing buffer JAO ( 0.04 GB; CompressionRatio= 1.00)
Collecting buffer JAO 
TOTAL TIME for half transformation         ...    70.548 sec
AO-integral generation                     ...     7.795 sec
Half transformation                        ...    30.942 sec
J-integral sorting                         ...    27.440 sec

-------------------------- SECOND HALF TRANSFORMATION -------------------------
Formation of (pq|rs)                       ... ok (    29.056 sec)
Integral sorting                           ... ok (   149.740 sec)

------------------
CLOSED SHELL GUESS
------------------

Initial guess performed in     0.001 sec
E(0)                                       ...   -342.487882221
E(MP2)                                     ...     -0.173405990
Initial E(tot)                             ...   -342.661288211
<T|T>                                      ...      0.073231449
Number of pairs included                   ... 10
Total number of pairs                      ... 10

------------------------------------------------
                  RHF COUPLED CLUSTER ITERATIONS
------------------------------------------------

Number of amplitudes to be optimized       ... 121440

Iter       E(tot)           E(Corr)          Delta-E          Residual     Time
  0   -342.661288211     -0.173405990      0.000000000      0.006424540    0.27
                           *** Turning on DIIS ***
  1   -342.679630639     -0.191748418     -0.018342429      0.003041880    0.68
  2   -342.687566743     -0.199684522     -0.007936103      0.001331578    0.63
  3   -342.688795032     -0.200912811     -0.001228289      0.000638137    0.67
  4   -342.689059281     -0.201177060     -0.000264249      0.000242140    0.60
  5   -342.689129734     -0.201247513     -0.000070454      0.000077972    0.60
  6   -342.689140682     -0.201258461     -0.000010948      0.000026421    0.66
  7   -342.689140874     -0.201258653     -0.000000192      0.000012453    0.60
  8   -342.689140647     -0.201258426      0.000000227      0.000005458    0.59
               --- The Coupled-Cluster iterations have converged ---

----------------------
COUPLED CLUSTER ENERGY
----------------------

E(0)                                       ...   -342.487882221
E(CORR)                                    ...     -0.201258426
E(TOT)                                     ...   -342.689140647
Singles Norm <S|S>**1/2                    ...      0.037969925  
T1 diagnostic                              ...      0.013424396  

------------------
LARGEST AMPLITUDES
------------------
   8-> 17   8-> 17       0.029195
   8-> 16   8-> 16       0.029195
   7-> 16   7-> 16       0.025317
   6-> 17   6-> 17       0.025316
   8-> 35   8-> 35       0.024177
   8-> 20   8-> 20       0.020321
   8-> 35   8-> 20       0.020025
   8-> 20   8-> 35       0.020025
   8-> 17   8-> 30       0.016911
   8-> 30   8-> 17       0.016911
   8-> 16   8-> 31       0.016911
   8-> 31   8-> 16       0.016911
   8-> 13   8-> 16       0.016263
   8-> 16   8-> 13       0.016263
   8-> 14   8-> 17       0.016263
   8-> 17   8-> 14       0.016263


        !!!!!!!!!!!!!!!!!!!!!!!!!!!!!!!!!!!!!!!!!!!!!!!!!!!!!!!!!!!!!!!!!!!!!!!!!! 
        !  Warning: Densities are linearized densities !                         !
        !!!!!!!!!!!!!!!!!!!!!!!!!!!!!!!!!!!!!!!!!!!!!!!!!!!!!!!!!!!!!!!!!!!!!!!!!! 

Trace of internal density part =     -0.215966329
Trace of external density part =      0.215966329
NORM  =      1.109424880 sqrt=     1.053292400
W(HF) =      0.901367923
------------------------------------------------------------------------------
                           ORCA POPULATION ANALYSIS
------------------------------------------------------------------------------
Input electron density              ... phosphine_CCSD_aug-cc-pVTZ_SPE.mdcip
BaseName (.gbw .S,...)              ... phosphine_CCSD_aug-cc-pVTZ_SPE

                    ********************************
                    * MULLIKEN POPULATION ANALYSIS *
                    ********************************

-----------------------
MULLIKEN ATOMIC CHARGES
-----------------------
   0 P :   -0.347608
   1 H :    0.115869
   2 H :    0.115870
   3 H :    0.115869
Sum of atomic charges:   -0.0000000

--------------------------------
MULLIKEN REDUCED ORBITAL CHARGES
--------------------------------
  0 P s       :     5.579845  s :     5.579845
      pz      :     3.279680  p :     9.460595
      px      :     3.069479
      py      :     3.111436
      dz2     :     0.091112  d :     0.283315
      dxz     :     0.033028
      dyz     :     0.039706
      dx2y2   :     0.096794
      dxy     :     0.022675
      f0      :     0.004863  f :     0.023853
      f+1     :     0.003399
      f-1     :     0.003702
      f+2     :     0.003058
      f-2     :     0.001828
      f+3     :     0.003343
      f-3     :     0.003660
  1 H s       :     0.862586  s :     0.862586
      pz      :     0.005847  p :     0.020558
      px      :     0.002407
      py      :     0.012303
      dz2     :     0.000198  d :     0.000986
      dxz     :     0.000302
      dyz     :     0.000149
      dx2y2   :     0.000025
      dxy     :     0.000313
  2 H s       :     0.862586  s :     0.862586
      pz      :     0.012474  p :     0.020558
      px      :     0.002408
      py      :     0.005676
      dz2     :     0.000844  d :     0.000986
      dxz     :     0.000592
      dyz     :     0.000383
      dx2y2   :    -0.000855
      dxy     :     0.000023
  3 H s       :     0.862586  s :     0.862586
      pz      :     0.005848  p :     0.020558
      px      :     0.013336
      py      :     0.001374
      dz2     :     0.000198  d :     0.000986
      dxz     :     0.000264
      dyz     :     0.000187
      dx2y2   :     0.000474
      dxy     :    -0.000136


                     *******************************
                     * LOEWDIN POPULATION ANALYSIS *
                     *******************************

----------------------
LOEWDIN ATOMIC CHARGES
----------------------
   0 P :    1.318397
   1 H :   -0.439466
   2 H :   -0.439466
   3 H :   -0.439465

-------------------------------
LOEWDIN REDUCED ORBITAL CHARGES
-------------------------------
  0 P s       :     4.749684  s :     4.749684
      pz      :     2.938917  p :     8.472990
      px      :     2.747981
      py      :     2.786092
      dz2     :     0.109522  d :     0.367858
      dxz     :     0.035039
      dyz     :     0.051858
      dx2y2   :     0.137504
      dxy     :     0.033936
      f0      :     0.017031  f :     0.091070
      f+1     :     0.012694
      f-1     :     0.015970
      f+2     :     0.009033
      f-2     :     0.004131
      f+3     :     0.018808
      f-3     :     0.013403
  1 H s       :     0.808873  s :     0.808873
      pz      :     0.129561  p :     0.413130
      px      :     0.098472
      py      :     0.185097
      dz2     :     0.018103  d :     0.217463
      dxz     :     0.003364
      dyz     :     0.080669
      dx2y2   :     0.057946
      dxy     :     0.057381
  2 H s       :     0.808874  s :     0.808874
      pz      :     0.206244  p :     0.413130
      px      :     0.098474
      py      :     0.108412
      dz2     :     0.081583  d :     0.217462
      dxz     :     0.051152
      dyz     :     0.054516
      dx2y2   :     0.020622
      dxy     :     0.009589
  3 H s       :     0.808874  s :     0.808874
      pz      :     0.129552  p :     0.413129
      px      :     0.181384
      py      :     0.102193
      dz2     :     0.018099  d :     0.217462
      dxz     :     0.078604
      dyz     :     0.005427
      dx2y2   :     0.043216
      dxy     :     0.072117


                      *****************************
                      * MAYER POPULATION ANALYSIS *
                      *****************************

  NA   - Mulliken gross atomic population
  ZA   - Total nuclear charge
  QA   - Mulliken gross atomic charge
  VA   - Mayer's total valence
  BVA  - Mayer's bonded valence
  FA   - Mayer's free valence

  ATOM       NA         ZA         QA         VA         BVA        FA
  0 P     15.3476    15.0000    -0.3476     3.2877     2.7218     0.5659
  1 H      0.8841     1.0000     0.1159     1.0035     0.9137     0.0898
  2 H      0.8841     1.0000     0.1159     1.0035     0.9137     0.0898
  3 H      0.8841     1.0000     0.1159     1.0035     0.9137     0.0898

  Mayer bond orders larger than 0.100000
B(  0-P ,  1-H ) :   0.9073 B(  0-P ,  2-H ) :   0.9073 B(  0-P ,  3-H ) :   0.9073 




------------------------------------------------------------------------------- 
                                     TIMINGS                                   
------------------------------------------------------------------------------- 


Total execution time                   ...      255.489 sec

Fock Matrix Formation                  ...        0.446 sec (  0.2%)
Initial Guess                          ...        0.001 sec (  0.0%)
DIIS Solver                            ...        0.045 sec (  0.0%)
State Vector Update                    ...        0.002 sec (  0.0%)
Sigma-vector construction              ...        5.256 sec (  2.1%)
  <D|H|D>(0-ext)                       ...        0.005 sec (  0.1% of sigma)
  <D|H|D>(2-ext Fock)                  ...        0.013 sec (  0.2% of sigma)
  <D|H|D>(2-ext)                       ...        0.131 sec (  2.5% of sigma)
  <D|H|D>(4-ext)                       ...        1.624 sec ( 30.9% of sigma)
  <D|H|D>(4-ext-corr)                  ...        0.366 sec (  7.0% of sigma)
  <S|H|0>                              ...        0.001 sec (  0.0% of sigma)
  <S|H|S>                              ...        0.002 sec (  0.0% of sigma)
  <S|H|D>(1-ext)                       ...        0.003 sec (  0.1% of sigma)
  <D|H|S>(1-ext)                       ...        0.004 sec (  0.1% of sigma)
  <S|H|D>(3-ext)                       ...        0.055 sec (  1.0% of sigma)
  Fock-dressing                        ...        2.705 sec ( 51.5% of sigma)
  (ik|jl)-dressing                     ...        0.005 sec (  0.1% of sigma)
  (ij|ab),(ia|jb)-dressing             ...        0.291 sec (  5.5% of sigma)
  Pair energies                        ...        0.001 sec (  0.0% of sigma)
One-particle density matrix            ...        0.002 sec (  0.0%)


-------------------------   --------------------
FINAL SINGLE POINT ENERGY      -342.689140646763
-------------------------   --------------------


                            ***************************************
                            *     ORCA property calculations      *
                            ***************************************

                                    ---------------------
                                    Active property flags
                                    ---------------------
   (+) Dipole Moment


------------------------------------------------------------------------------
                       ORCA ELECTRIC PROPERTIES CALCULATION
------------------------------------------------------------------------------

Dipole Moment Calculation                       ... on
Quadrupole Moment Calculation                   ... off
Polarizability Calculation                      ... off
GBWName                                         ... phosphine_CCSD_aug-cc-pVTZ_SPE.gbw
Electron density file                           ... phosphine_CCSD_aug-cc-pVTZ_SPE.scfp
The origin for moment calculation is the CENTER OF MASS  = (-0.126871, -0.179150  0.310598)

-------------
DIPOLE MOMENT
-------------
                                X             Y             Z
Electronic contribution:     -0.58017      -0.81999       1.42083
Nuclear contribution   :      0.67174       0.94940      -1.64507
                        -----------------------------------------
Total Dipole Moment    :      0.09156       0.12941      -0.22424
                        -----------------------------------------
Magnitude (a.u.)       :      0.27461
Magnitude (Debye)      :      0.69801



--------------------
Rotational spectrum 
--------------------
 
Rotational constants in cm-1:     4.509278     4.509246     3.941543 
Rotational constants in MHz : 135184.748469 135183.795210 118164.483428 

 Dipole components along the rotational axes: 
x,y,z [a.u.] :     0.000002     0.000002    -0.274614 
x,y,z [Debye]:     0.000004     0.000005    -0.698012 

 

                           *** MDCI DENSITY ***

------------------------------------------------------------------------------
                       ORCA ELECTRIC PROPERTIES CALCULATION
------------------------------------------------------------------------------

Dipole Moment Calculation                       ... on
Quadrupole Moment Calculation                   ... off
Polarizability Calculation                      ... off
GBWName                                         ... phosphine_CCSD_aug-cc-pVTZ_SPE.gbw
Electron density file                           ... phosphine_CCSD_aug-cc-pVTZ_SPE.mdcip
The origin for moment calculation is the CENTER OF MASS  = (-0.126871, -0.179150  0.310598)

-------------
DIPOLE MOMENT
-------------
                                X             Y             Z
Electronic contribution:     -0.58701      -0.82965       1.43757
Nuclear contribution   :      0.67174       0.94940      -1.64507
                        -----------------------------------------
Total Dipole Moment    :      0.08473       0.11975      -0.20750
                        -----------------------------------------
Magnitude (a.u.)       :      0.25412
Magnitude (Debye)      :      0.64592



--------------------
Rotational spectrum 
--------------------
 
Rotational constants in cm-1:     4.509278     4.509246     3.941543 
Rotational constants in MHz : 135184.748469 135183.795210 118164.483428 

 Dipole components along the rotational axes: 
x,y,z [a.u.] :     0.000001     0.000002    -0.254120 
x,y,z [Debye]:     0.000004     0.000005    -0.645922 

 

Timings for individual modules:

Sum of individual times         ...      260.641 sec (=   4.344 min)
GTO integral calculation        ...        0.569 sec (=   0.009 min)   0.2 %
SCF iterations                  ...        4.284 sec (=   0.071 min)   1.6 %
MDCI module                     ...      255.788 sec (=   4.263 min)  98.1 %
                             ****ORCA TERMINATED NORMALLY****
TOTAL RUN TIME: 0 days 0 hours 4 minutes 21 seconds 222 msec
