
                                 *****************
                                 * O   R   C   A *
                                 *****************

           --- An Ab Initio, DFT and Semiempirical electronic structure package ---

                  #######################################################
                  #                        -***-                        #
                  #          Department of theory and spectroscopy      #
                  #               Directorship: Frank Neese             #
                  #        Max Planck Institute fuer Kohlenforschung    #
                  #                Kaiser Wilhelm Platz 1               #
                  #                 D-45470 Muelheim/Ruhr               #
                  #                      Germany                        #
                  #                                                     #
                  #                  All rights reserved                #
                  #                        -***-                        #
                  #######################################################


                         Program Version 4.2.1 -  RELEASE  -


 With contributions from (in alphabetic order):
   Daniel Aravena         : Magnetic Suceptibility
   Michael Atanasov       : Ab Initio Ligand Field Theory (pilot matlab implementation)
   Alexander A. Auer      : GIAO ZORA, VPT2
   Ute Becker             : Parallelization
   Giovanni Bistoni       : ED, misc. LED, open-shell LED, HFLD
   Martin Brehm           : Molecular dynamics
   Dmytro Bykov           : SCF Hessian
   Vijay G. Chilkuri      : MRCI spin determinant printing, contributions to CSF-ICE
   Dipayan Datta          : RHF DLPNO-CCSD density
   Achintya Kumar Dutta   : EOM-CC, STEOM-CC
   Dmitry Ganyushin       : Spin-Orbit,Spin-Spin,Magnetic field MRCI
   Miquel Garcia          : C-PCM Hessian, Gaussian charge scheme
   Yang Guo               : DLPNO-NEVPT2, CIM, IAO-localization
   Andreas Hansen         : Spin unrestricted coupled pair/coupled cluster methods
   Benjamin Helmich-Paris : CASSCF linear response (MC-RPA)
   Lee Huntington         : MR-EOM, pCC
   Robert Izsak           : Overlap fitted RIJCOSX, COSX-SCS-MP3, EOM
   Christian Kollmar      : KDIIS, OOCD, Brueckner-CCSD(T), CCSD density
   Simone Kossmann        : Meta GGA functionals, TD-DFT gradient, OOMP2, MP2 Hessian
   Martin Krupicka        : AUTO-CI
   Lucas Lang             : DCDCAS
   Dagmar Lenk            : GEPOL surface, SMD
   Dimitrios Liakos       : Extrapolation schemes; Compound Job, initial MDCI parallelization
   Dimitrios Manganas     : Further ROCIS development; embedding schemes
   Dimitrios Pantazis     : SARC Basis sets
   Taras Petrenko         : DFT Hessian,TD-DFT gradient, ASA, ECA, R-Raman, ABS, FL, XAS/XES, NRVS
   Peter Pinski           : DLPNO-MP2, DLPNO-MP2 Gradient
   Christoph Reimann      : Effective Core Potentials
   Marius Retegan         : Local ZFS, SOC
   Christoph Riplinger    : Optimizer, TS searches, QM/MM, DLPNO-CCSD(T), (RO)-DLPNO pert. Triples
   Tobias Risthaus        : Range-separated hybrids, TD-DFT gradient, RPA, STAB
   Michael Roemelt        : Original ROCIS implementation
   Masaaki Saitow         : Open-shell DLPNO-CCSD energy and density
   Barbara Sandhoefer     : DKH picture change effects
   Avijit Sen             : IP-ROCIS
   Kantharuban Sivalingam : CASSCF convergence, NEVPT2, FIC-MRCI
   Bernardo de Souza      : ESD, SOC TD-DFT
   Georgi Stoychev        : AutoAux, RI-MP2 NMR
   Willem Van den Heuvel  : Paramagnetic NMR
   Boris Wezisla          : Elementary symmetry handling
   Frank Wennmohs         : Technical directorship


 We gratefully acknowledge several colleagues who have allowed us to
 interface, adapt or use parts of their codes:
   Stefan Grimme, W. Hujo, H. Kruse,             : VdW corrections, initial TS optimization,
                  C. Bannwarth                     DFT functionals, gCP, sTDA/sTD-DF
   Ed Valeev, F. Pavosevic, A. Kumar             : LibInt (2-el integral package), F12 methods
   Garnet Chan, S. Sharma, J. Yang, R. Olivares  : DMRG
   Ulf Ekstrom                                   : XCFun DFT Library
   Mihaly Kallay                                 : mrcc  (arbitrary order and MRCC methods)
   Andreas Klamt, Michael Diedenhofen            : otool_cosmo (COSMO solvation model)
   Jiri Pittner, Ondrej Demel                    : Mk-CCSD
   Frank Weinhold                                : gennbo (NPA and NBO analysis)
   Christopher J. Cramer and Donald G. Truhlar   : smd solvation model
   Lars Goerigk                                  : TD-DFT with DH, B97 family of functionals
   V. Asgeirsson, H. Jonsson                     : NEB implementation
   FAccTs GmbH                                   : IRC, NEB, NEB-TS, Multilevel, MM, QM/MM, CI optimization
   S Lehtola, MJT Oliveira, MAL Marques          : LibXC Library


 Your calculation uses the libint2 library for the computation of 2-el integrals
 For citations please refer to: http://libint.valeyev.net

 Your ORCA version has been built with support for libXC version: 4.2.3
 For citations please refer to: https://tddft.org/programs/libxc/

 This ORCA versions uses:
   CBLAS   interface :  Fast vector & matrix operations
   LAPACKE interface :  Fast linear algebra routines
   SCALAPACK package :  Parallel linear algebra routines




***************************************
The coordinates will be read from file: phosphine.xyz
***************************************


----- Orbital basis set information -----
Your calculation utilizes the basis: cc-pVDZ 
       H, B-Ne : Obtained from the ccRepo (grant-hill.group.shef.ac.uk/ccrepo) Feb. 2017
                 T. H. Dunning, Jr., J. Chem. Phys. 90, 1007 (1989)
            He : Obtained from the ccRepo (grant-hill.group.shef.ac.uk/ccrepo) Feb. 2017
                 D. E. Woon, T. H. Dunning, Jr., J. Chem. Phys. 100, 2975 (1994)
  Li-Be, Na-Mg : Obtained from the ccRepo (grant-hill.group.shef.ac.uk/ccrepo) Feb. 2017
                 B. P. Prascher, D. E. Woon, K. A. Peterson, T. H. Dunning, Jr., A. K. Wilson, Theor. Chem. Acc. 128, 69 (2011)
         Al-Ar : Obtained from the ccRepo (grant-hill.group.shef.ac.uk/ccrepo) Feb. 2017
                 D. E. Woon, T. H. Dunning, Jr., J. Chem. Phys. 98, 1358 (1993)
            Ca : Obtained from the Peterson Research Group Website (tyr0.chem.wsu.edu/~kipeters) Feb. 2017
                 J. Koput, K. A. Peterson, J. Phys. Chem. 106, 9595 (2002)
         Sc-Zn : Obtained from the ccRepo (grant-hill.group.shef.ac.uk/ccrepo) Feb. 2017
                 N. B. Balabanov, K. A. Peterson, J. Chem. Phys. 123, 064107 (2005)
                 N. B. Balabanov, K. A. Peterson, J. Chem. Phys. 125, 074110 (2006)
         Ga-Kr : Obtained from the ccRepo (grant-hill.group.shef.ac.uk/ccrepo) Feb. 2017
                 A. K. Wilson, D. E. Woon, K. A. Peterson, T. H. Dunning, Jr., J. Chem. Phys. 110, 7667 (1999)

================================================================================
                                        WARNINGS
                       Please study these warnings very carefully!
================================================================================


WARNING: Geometry Optimization
  ===> : Switching off AutoStart
         For restart on a previous wavefunction, please use MOREAD

INFO   : the flag for use of LIBINT has been found!

================================================================================
                                       INPUT FILE
================================================================================
NAME = phosphine_B3LYP_cc-pVDZ_OPT.inp
|  1> # phosphine OPT with B3LYP/cc-pVDZ
|  2> 
|  3> ! B3LYP cc-pVDZ TightSCF Opt PAL8
|  4> %maxcore 1000
|  5> 
|  6> * xyzfile 0 1 phosphine.xyz
|  7> 
|  8> 
|  9>                          ****END OF INPUT****
================================================================================

                       *****************************
                       * Geometry Optimization Run *
                       *****************************

Geometry optimization settings:
Update method            Update   .... BFGS
Choice of coordinates    CoordSys .... Z-matrix Internals
Initial Hessian          InHess   .... Almoef's Model

Convergence Tolerances:
Energy Change            TolE     ....  5.0000e-06 Eh
Max. Gradient            TolMAXG  ....  3.0000e-04 Eh/bohr
RMS Gradient             TolRMSG  ....  1.0000e-04 Eh/bohr
Max. Displacement        TolMAXD  ....  4.0000e-03 bohr
RMS Displacement         TolRMSD  ....  2.0000e-03 bohr
Strict Convergence                ....  False
------------------------------------------------------------------------------
                        ORCA OPTIMIZATION COORDINATE SETUP
------------------------------------------------------------------------------

The optimization will be done in new redundant internal coordinates
Making redundant internal coordinates   ...  (new redundants) done
Evaluating the initial hessian          ...  (Almloef) done
Evaluating the coordinates              ...  done
Calculating the B-matrix                .... done
Calculating the G-matrix                .... done
Diagonalizing the G-matrix              .... done
The first mode is                       ....    1
The number of degrees of freedom        ....    6

    -----------------------------------------------------------------
                    Redundant Internal Coordinates


    -----------------------------------------------------------------
         Definition                    Initial Value    Approx d2E/dq
    -----------------------------------------------------------------
      1. B(H   1,P   0)                  1.2649         0.636531   
      2. B(H   2,P   0)                  1.2649         0.636519   
      3. B(H   3,P   0)                  1.2649         0.636532   
      4. A(H   1,P   0,H   3)          104.1568         0.415197   
      5. A(H   2,P   0,H   3)          104.1565         0.415196   
      6. A(H   1,P   0,H   2)          104.1561         0.415196   
      7. I(H   1,H   3,H   2,P   0)     66.5503         0.004288   
    -----------------------------------------------------------------

Number of atoms                         .... 4
Number of degrees of freedom            .... 7

         *************************************************************
         *                GEOMETRY OPTIMIZATION CYCLE   1            *
         *************************************************************
---------------------------------
CARTESIAN COORDINATES (ANGSTROEM)
---------------------------------
  P     -0.029660   -0.041950    0.072660
  H     -0.398830    1.164290   -0.020930
  H     -0.398830   -0.564030   -1.018770
  H      1.230650    0.012080   -0.020930

----------------------------
CARTESIAN COORDINATES (A.U.)
----------------------------
  NO LB      ZA    FRAG     MASS         X           Y           Z
   0 P    15.0000    0    30.974   -0.056049   -0.079274    0.137308
   1 H     1.0000    0     1.008   -0.753679    2.200189   -0.039552
   2 H     1.0000    0     1.008   -0.753679   -1.065862   -1.925196
   3 H     1.0000    0     1.008    2.325591    0.022828   -0.039552

--------------------------------
INTERNAL COORDINATES (ANGSTROEM)
--------------------------------
 P      0   0   0     0.000000000000     0.00000000     0.00000000
 H      1   0   0     1.264934984337     0.00000000     0.00000000
 H      1   2   0     1.264940101428   104.15612708     0.00000000
 H      1   2   3     1.264934632738   104.15678231   108.88990330

---------------------------
INTERNAL COORDINATES (A.U.)
---------------------------
 P      0   0   0     0.000000000000     0.00000000     0.00000000
 H      1   0   0     2.390380697613     0.00000000     0.00000000
 H      1   2   0     2.390390367513   104.15612708     0.00000000
 H      1   2   3     2.390380033187   104.15678231   108.88990330

---------------------
BASIS SET INFORMATION
---------------------
There are 2 groups of distinct atoms

 Group   1 Type P   : 34s15p1d contracted to 4s3p1d pattern {1111111/771/1}
 Group   2 Type H   : 4s1p contracted to 2s1p pattern {31/1}

Atom   0P    basis set group =>   1
Atom   1H    basis set group =>   2
Atom   2H    basis set group =>   2
Atom   3H    basis set group =>   2


           ************************************************************
           *        Program running with 8 parallel MPI-processes     *
           *              working on a common directory               *
           ************************************************************
------------------------------------------------------------------------------
                           ORCA GTO INTEGRAL CALCULATION
------------------------------------------------------------------------------

                         BASIS SET STATISTICS AND STARTUP INFO

 # of primitive gaussian shells          ...   65
 # of primitive gaussian functions       ...  105
 # of contracted shells                  ...   17
 # of contracted basis functions         ...   33
 Highest angular momentum                ...    2
 Maximum contraction depth               ...   11
 Integral package used                   ... LIBINT
 Integral threshhold            Thresh   ...  2.500e-11
 Primitive cut-off              TCut     ...  2.500e-12


------------------------------ INTEGRAL EVALUATION ----------------------------


 * One electron integrals 
 Pre-screening matrix                    ... done
 Shell pair data                         ... done (   0.000 sec)



           ************************************************************
           *        Program running with 8 parallel MPI-processes     *
           *              working on a common directory               *
           ************************************************************
-------------------------------------------------------------------------------
                                 ORCA SCF
-------------------------------------------------------------------------------

------------
SCF SETTINGS
------------
Hamiltonian:
 Density Functional     Method          .... DFT(GTOs)
 Exchange Functional    Exchange        .... B88
   X-Alpha parameter    XAlpha          ....  0.666667
   Becke's b parameter  XBeta           ....  0.004200
 Correlation Functional Correlation     .... LYP
 LDA part of GGA corr.  LDAOpt          .... VWN-5
 Gradients option       PostSCFGGA      .... off
 Hybrid DFT is turned on
   Fraction HF Exchange ScalHFX         ....  0.200000
   Scaling of DF-GGA-X  ScalDFX         ....  0.720000
   Scaling of DF-GGA-C  ScalDFC         ....  0.810000
   Scaling of DF-LDA-C  ScalLDAC        ....  1.000000
   Perturbative correction              ....  0.000000
   Density functional embedding theory  .... OFF
   NL short-range parameter             ....  4.800000


General Settings:
 Integral files         IntName         .... phosphine_B3LYP_cc-pVDZ_OPT
 Hartree-Fock type      HFTyp           .... RHF
 Total Charge           Charge          ....    0
 Multiplicity           Mult            ....    1
 Number of Electrons    NEL             ....   18
 Basis Dimension        Dim             ....   33
 Nuclear Repulsion      ENuc            ....     19.6209088392 Eh

Convergence Acceleration:
 DIIS                   CNVDIIS         .... on
   Start iteration      DIISMaxIt       ....    12
   Startup error        DIISStart       ....  0.200000
   # of expansion vecs  DIISMaxEq       ....     5
   Bias factor          DIISBfac        ....   1.050
   Max. coefficient     DIISMaxC        ....  10.000
 Newton-Raphson         CNVNR           .... off
 SOSCF                  CNVSOSCF        .... on
   Start iteration      SOSCFMaxIt      ....   150
   Startup grad/error   SOSCFStart      ....  0.003300
 Level Shifting         CNVShift        .... on
   Level shift para.    LevelShift      ....    0.2500
   Turn off err/grad.   ShiftErr        ....    0.0010
 Zerner damping         CNVZerner       .... off
 Static damping         CNVDamp         .... on
   Fraction old density DampFac         ....    0.7000
   Max. Damping (<1)    DampMax         ....    0.9800
   Min. Damping (>=0)   DampMin         ....    0.0000
   Turn off err/grad.   DampErr         ....    0.1000
 Fernandez-Rico         CNVRico         .... off

SCF Procedure:
 Maximum # iterations   MaxIter         ....   125
 SCF integral mode      SCFMode         .... Direct
   Integral package                     .... LIBINT
 Reset frequency        DirectResetFreq ....    20
 Integral Threshold     Thresh          ....  2.500e-11 Eh
 Primitive CutOff       TCut            ....  2.500e-12 Eh

Convergence Tolerance:
 Convergence Check Mode ConvCheckMode   .... Total+1el-Energy
 Convergence forced     ConvForced      .... 0
 Energy Change          TolE            ....  1.000e-08 Eh
 1-El. energy change                    ....  1.000e-05 Eh
 Orbital Gradient       TolG            ....  1.000e-05
 Orbital Rotation angle TolX            ....  1.000e-05
 DIIS Error             TolErr          ....  5.000e-07


Diagonalization of the overlap matrix:
Smallest eigenvalue                        ... 1.519e-02
Time for diagonalization                   ...    0.001 sec
Threshold for overlap eigenvalues          ... 1.000e-08
Number of eigenvalues below threshold      ... 0
Time for construction of square roots      ...    0.000 sec
Total time needed                          ...    0.001 sec

-------------------
DFT GRID GENERATION
-------------------

General Integration Accuracy     IntAcc      ...  4.340
Radial Grid Type                 RadialGrid  ... Gauss-Chebyshev
Angular Grid (max. acc.)         AngularGrid ... Lebedev-110
Angular grid pruning method      GridPruning ... 3 (G Style)
Weight generation scheme         WeightScheme... Becke
Basis function cutoff            BFCut       ...    1.0000e-11
Integration weight cutoff        WCut        ...    1.0000e-14
Grids for H and He will be reduced by one unit

# of grid points (after initial pruning)     ...   4188 (   0.0 sec)
# of grid points (after weights+screening)   ...   4129 (   0.0 sec)
nearest neighbour list constructed           ...    0.0 sec
Grid point re-assignment to atoms done       ...    0.0 sec
Grid point division into batches done        ...    0.0 sec
Reduced shell lists constructed in    0.0 sec

Total number of grid points                  ...     4129
Total number of batches                      ...       66
Average number of points per batch           ...       62
Average number of grid points per atom       ...     1032
Average number of shells per batch           ...    15.20 (89.41%)
Average number of basis functions per batch  ...    29.40 (89.09%)
Average number of large shells per batch     ...    14.90 (98.03%)
Average number of large basis fcns per batch ...    28.90 (98.30%)
Maximum spatial batch extension              ...  13.40, 17.83, 19.22 au
Average spatial batch extension              ...   0.61,  0.73,  0.74 au

Time for grid setup =    0.468 sec

------------------------------
INITIAL GUESS: MODEL POTENTIAL
------------------------------
Loading Hartree-Fock densities                     ... done
Calculating cut-offs                               ... done
Setting up the integral package                    ... done
Initializing the effective Hamiltonian             ... done
Starting the Coulomb interaction                   ... done (   0.0 sec)
Reading the grid                                   ... done
Mapping shells                                     ... done
Starting the XC term evaluation                    ... done (   0.0 sec)
  promolecular density results
     # of electrons  =     18.000432662
     EX              =    -23.562819185
     EC              =     -0.678472380
     EX+EC           =    -24.241291565
Transforming the Hamiltonian                       ... done (   0.0 sec)
Diagonalizing the Hamiltonian                      ... done (   0.0 sec)
Back transforming the eigenvectors                 ... done (   0.0 sec)
Now organizing SCF variables                       ... done
                      ------------------
                      INITIAL GUESS DONE (   0.5 sec)
                      ------------------
--------------
SCF ITERATIONS
--------------
ITER       Energy         Delta-E        Max-DP      RMS-DP      [F,P]     Damp
               ***  Starting incremental Fock matrix formation  ***
  0   -343.0303041794   0.000000000000 0.03589563  0.00251307  0.0614359 0.7000
  1   -343.0356675215  -0.005363342128 0.02689989  0.00209212  0.0403780 0.7000
                               ***Turning on DIIS***
  2   -343.0388454160  -0.003177894447 0.05157436  0.00445334  0.0227609 0.0000
  3   -343.0441331097  -0.005287693684 0.01744611  0.00116777  0.0134992 0.0000
                      *** Initiating the SOSCF procedure ***
                           *** Shutting down DIIS ***
                      *** Re-Reading the Fockian *** 
                      *** Removing any level shift *** 
ITER      Energy       Delta-E        Grad      Rot      Max-DP    RMS-DP
  4   -343.04471393  -0.0005808229  0.001267  0.001267  0.002453  0.000251
               *** Restarting incremental Fock matrix formation ***
  5   -343.04474028  -0.0000263467  0.000480  0.000714  0.001399  0.000139
  6   -343.04474147  -0.0000011942  0.000259  0.000229  0.000694  0.000047
  7   -343.04474211  -0.0000006365  0.000011  0.000020  0.000049  0.000003
  8   -343.04474211  -0.0000000022  0.000007  0.000008  0.000017  0.000001
                 **** Energy Check signals convergence ****
              ***Rediagonalizing the Fockian in SOSCF/NRSCF***

               *****************************************************
               *                     SUCCESS                       *
               *           SCF CONVERGED AFTER   9 CYCLES          *
               *****************************************************

Setting up the final grid:

General Integration Accuracy     IntAcc      ...  4.670
Radial Grid Type                 RadialGrid  ... Gauss-Chebyshev
Angular Grid (max. acc.)         AngularGrid ... Lebedev-302
Angular grid pruning method      GridPruning ... 3 (G Style)
Weight generation scheme         WeightScheme... Becke
Basis function cutoff            BFCut       ...    1.0000e-11
Integration weight cutoff        WCut        ...    1.0000e-14
Grids for H and He will be reduced by one unit

# of grid points (after initial pruning)     ...  17028 (   0.0 sec)
# of grid points (after weights+screening)   ...  16761 (   0.0 sec)
nearest neighbour list constructed           ...    0.0 sec
Grid point re-assignment to atoms done       ...    0.0 sec
Grid point division into batches done        ...    0.0 sec
Reduced shell lists constructed in    0.0 sec

Total number of grid points                  ...    16761
Total number of batches                      ...      264
Average number of points per batch           ...       63
Average number of grid points per atom       ...     4190
Average number of shells per batch           ...    15.35 (90.31%)
Average number of basis functions per batch  ...    29.59 (89.66%)
Average number of large shells per batch     ...    14.56 (94.83%)
Average number of large basis fcns per batch ...    28.03 (94.73%)
Maximum spatial batch extension              ...  16.19, 15.46, 14.80 au
Average spatial batch extension              ...   0.43,  0.40,  0.41 au

Final grid set up in    0.3 sec
Final integration                            ... done (   0.2 sec)
Change in XC energy                          ...    -0.000141987
Integrated number of electrons               ...    18.000002015
Previous integrated no of electrons          ...    18.002060501

----------------
TOTAL SCF ENERGY
----------------

Total Energy       :         -343.04488410 Eh           -9334.72586 eV

Components:
Nuclear Repulsion  :           19.62090884 Eh             533.91207 eV
Electronic Energy  :         -362.66579294 Eh           -9868.63794 eV
One Electron Energy:         -512.52507810 Eh          -13946.51640 eV
Two Electron Energy:          149.85928516 Eh            4077.87846 eV

Virial components:
Potential Energy   :         -685.78455758 Eh          -18661.14653 eV
Kinetic Energy     :          342.73967348 Eh            9326.42066 eV
Virial Ratio       :            2.00089050


DFT components:
N(Alpha)           :        9.000001007304 electrons
N(Beta)            :        9.000001007304 electrons
N(Total)           :       18.000002014609 electrons
E(X)               :      -18.852262604143 Eh       
E(C)               :       -0.801176334158 Eh       
E(XC)              :      -19.653438938301 Eh       
DFET-embed. en.    :        0.000000000000 Eh       

---------------
SCF CONVERGENCE
---------------

  Last Energy change         ...   -3.9864e-10  Tolerance :   1.0000e-08
  Last MAX-Density change    ...    2.2517e-06  Tolerance :   1.0000e-07
  Last RMS-Density change    ...    2.0920e-07  Tolerance :   5.0000e-09
  Last Orbital Gradient      ...    9.9710e-07  Tolerance :   1.0000e-05
  Last Orbital Rotation      ...    1.3488e-06  Tolerance :   1.0000e-05

             **** THE GBW FILE WAS UPDATED (phosphine_B3LYP_cc-pVDZ_OPT.gbw) ****
             **** DENSITY FILE WAS UPDATED (phosphine_B3LYP_cc-pVDZ_OPT.scfp) ****
             **** ENERGY FILE WAS UPDATED (phosphine_B3LYP_cc-pVDZ_OPT.en.tmp) ****
             **** THE GBW FILE WAS UPDATED (phosphine_B3LYP_cc-pVDZ_OPT.gbw) ****
             **** DENSITY FILE WAS UPDATED (phosphine_B3LYP_cc-pVDZ_OPT.scfp) ****
----------------
ORBITAL ENERGIES
----------------

  NO   OCC          E(Eh)            E(eV) 
   0   2.0000     -77.047827     -2096.5780 
   1   2.0000      -6.532823      -177.7672 
   2   2.0000      -4.694285      -127.7380 
   3   2.0000      -4.694251      -127.7371 
   4   2.0000      -4.688260      -127.5740 
   5   2.0000      -0.674640       -18.3579 
   6   2.0000      -0.422296       -11.4913 
   7   2.0000      -0.422014       -11.4836 
   8   2.0000      -0.238702        -6.4954 
   9   0.0000       0.073630         2.0036 
  10   0.0000       0.075063         2.0426 
  11   0.0000       0.076759         2.0887 
  12   0.0000       0.278065         7.5665 
  13   0.0000       0.279357         7.6017 
  14   0.0000       0.355130         9.6636 
  15   0.0000       0.433533        11.7970 
  16   0.0000       0.433983        11.8093 
  17   0.0000       0.434292        11.8177 
  18   0.0000       0.558794        15.2056 
  19   0.0000       0.560378        15.2487 
  20   0.0000       0.662032        18.0148 
  21   0.0000       0.713017        19.4022 
  22   0.0000       1.076871        29.3032 
  23   0.0000       1.078142        29.3377 
  24   0.0000       1.242695        33.8154 
  25   0.0000       1.345959        36.6254 
  26   0.0000       1.346229        36.6328 
  27   0.0000       1.688021        45.9334 
  28   0.0000       1.723761        46.9059 
  29   0.0000       1.724228        46.9186 
  30   0.0000       2.092177        56.9310 
  31   0.0000       2.246627        61.1338 
  32   0.0000       2.246664        61.1348 

                    ********************************
                    * MULLIKEN POPULATION ANALYSIS *
                    ********************************

-----------------------
MULLIKEN ATOMIC CHARGES
-----------------------
   0 P :    0.076485
   1 H :   -0.026129
   2 H :   -0.026431
   3 H :   -0.023925
Sum of atomic charges:   -0.0000000

--------------------------------
MULLIKEN REDUCED ORBITAL CHARGES
--------------------------------
  0 P s       :     5.492022  s :     5.492022
      pz      :     3.362820  p :     9.335194
      px      :     2.943089
      py      :     3.029285
      dz2     :     0.030802  d :     0.096300
      dxz     :     0.006689
      dyz     :     0.011237
      dx2y2   :     0.040718
      dxy     :     0.006853
  1 H s       :     0.999114  s :     0.999114
      pz      :     0.006015  p :     0.027015
      px      :     0.004772
      py      :     0.016228
  2 H s       :     0.999489  s :     0.999489
      pz      :     0.015345  p :     0.026941
      px      :     0.004810
      py      :     0.006787
  3 H s       :     0.996849  s :     0.996849
      pz      :     0.006023  p :     0.027077
      px      :     0.017131
      py      :     0.003923


                     *******************************
                     * LOEWDIN POPULATION ANALYSIS *
                     *******************************

----------------------
LOEWDIN ATOMIC CHARGES
----------------------
   0 P :    0.193468
   1 H :   -0.064486
   2 H :   -0.064494
   3 H :   -0.064488

-------------------------------
LOEWDIN REDUCED ORBITAL CHARGES
-------------------------------
  0 P s       :     5.147532  s :     5.147532
      pz      :     3.401864  p :     9.484928
      px      :     3.000833
      py      :     3.082231
      dz2     :     0.052428  d :     0.174071
      dxz     :     0.011339
      dyz     :     0.020463
      dx2y2   :     0.075010
      dxy     :     0.014831
  1 H s       :     0.981720  s :     0.981720
      pz      :     0.019175  p :     0.082766
      px      :     0.013585
      py      :     0.050007
  2 H s       :     0.981746  s :     0.981746
      pz      :     0.049850  p :     0.082748
      px      :     0.013566
      py      :     0.019332
  3 H s       :     0.981680  s :     0.981680
      pz      :     0.019175  p :     0.082807
      px      :     0.051978
      py      :     0.011655


                      *****************************
                      * MAYER POPULATION ANALYSIS *
                      *****************************

  NA   - Mulliken gross atomic population
  ZA   - Total nuclear charge
  QA   - Mulliken gross atomic charge
  VA   - Mayer's total valence
  BVA  - Mayer's bonded valence
  FA   - Mayer's free valence

  ATOM       NA         ZA         QA         VA         BVA        FA
  0 P     14.9235    15.0000     0.0765     2.9610     2.9610    -0.0000
  1 H      1.0261     1.0000    -0.0261     0.9843     0.9843    -0.0000
  2 H      1.0264     1.0000    -0.0264     0.9836     0.9836     0.0000
  3 H      1.0239     1.0000    -0.0239     0.9841     0.9841    -0.0000

  Mayer bond orders larger than 0.100000
B(  0-P ,  1-H ) :   0.9874 B(  0-P ,  2-H ) :   0.9865 B(  0-P ,  3-H ) :   0.9871 


-------
TIMINGS
-------

Total SCF time: 0 days 0 hours 0 min 3 sec 

Total time                  ....       3.307 sec
Sum of individual times     ....       2.957 sec  ( 89.4%)

Fock matrix formation       ....       1.989 sec  ( 60.1%)
  XC integration            ....       0.414 sec  ( 20.8% of F)
    Basis function eval.    ....       0.009 sec  (  2.3% of XC)
    Density eval.           ....       0.006 sec  (  1.4% of XC)
    XC-Functional eval.     ....       0.065 sec  ( 15.7% of XC)
    XC-Potential eval.      ....       0.004 sec  (  0.9% of XC)
Diagonalization             ....       0.001 sec  (  0.0%)
Density matrix formation    ....       0.112 sec  (  3.4%)
Population analysis         ....       0.001 sec  (  0.0%)
Initial guess               ....       0.071 sec  (  2.1%)
Orbital Transformation      ....       0.000 sec  (  0.0%)
Orbital Orthonormalization  ....       0.000 sec  (  0.0%)
DIIS solution               ....       0.001 sec  (  0.0%)
SOSCF solution              ....       0.041 sec  (  1.2%)
Grid generation             ....       0.742 sec  ( 22.4%)

-------------------------   --------------------
FINAL SINGLE POINT ENERGY      -343.044884099871
-------------------------   --------------------



           ************************************************************
           *        Program running with 8 parallel MPI-processes     *
           *              working on a common directory               *
           ************************************************************
------------------------------------------------------------------------------
                         ORCA SCF GRADIENT CALCULATION
------------------------------------------------------------------------------

Gradient of the Kohn-Sham DFT energy:
Kohn-Sham wavefunction type      ... RKS
Hartree-Fock exchange scaling    ...    0.200
Number of operators              ...    1
Number of atoms                  ...    4
Basis set dimensions             ...   33
Integral neglect threshold       ... 2.5e-11
Integral primitive cutoff        ... 2.5e-12

Nuclear repulsion gradient       ... done
One Electron Gradient            ... done
Pre-screening matrix             ... done
Starting the two electron gradient:
Two electron gradient done
Exchange-correlation gradient    ... done

------------------
CARTESIAN GRADIENT
------------------

   1   P   :    0.049935813    0.070305945   -0.121746998
   2   H   :    0.022994521   -0.093229788    0.016335011
   3   H   :    0.022952623    0.032408800    0.089015880
   4   H   :   -0.095882956   -0.009484957    0.016396107

Difference to translation invariance:
           :    0.0000000000    0.0000000000   -0.0000000000

Norm of the cartesian gradient     ...    0.2253875215
RMS gradient                       ...    0.0650637731
MAX gradient                       ...    0.1217469979

-------
TIMINGS
-------

Total SCF gradient time            ...        0.297 sec

One electron gradient       ....       0.003 sec  (  1.1%)
Prescreening matrices       ....       0.009 sec  (  2.9%)
Two electron gradient       ....       0.121 sec  ( 40.9%)
XC gradient                 ....       0.033 sec  ( 11.2%)
------------------------------------------------------------------------------
                         ORCA GEOMETRY RELAXATION STEP
------------------------------------------------------------------------------

Reading the OPT-File                    .... done
Getting information on internals        .... done
Copying old internal coords+grads       .... done
Making the new internal coordinates     .... (new redundants).... done
Validating the new internal coordinates .... (new redundants).... done
Calculating the B-matrix                .... done
Calculating the G,G- and P matrices     .... done
Transforming gradient to internals      .... done
Projecting the internal gradient        .... done
Number of atoms                         ....   4
Number of internal coordinates          ....   7
Current Energy                          ....  -343.044884100 Eh
Current gradient norm                   ....     0.225387521 Eh/bohr
Maximum allowed component of the step   ....  0.300
Current trust radius                    ....  0.300
Evaluating the initial hessian          ....  (Almloef) done
Projecting the Hessian                  .... done
Forming the augmented Hessian           .... done
Diagonalizing the augmented Hessian     .... done
Last element of RFO vector              ....  0.965434524
Lowest eigenvalues of augmented Hessian:
 -0.044189509  0.167155066  0.415196423  0.415580437  0.636523000
Length of the computed step             ....  0.269977601
The final length of the internal step   ....  0.269977601
Converting the step to cartesian space:
 Initial RMS(Int)=    0.1020419417
Transforming coordinates:
 Iter   0:  RMS(Cart)=    0.0582800205 RMS(Int)=    0.1020364127
 Iter   1:  RMS(Cart)=    0.0018512892 RMS(Int)=    0.0023380494
 Iter   2:  RMS(Cart)=    0.0001165173 RMS(Int)=    0.0001414592
 Iter   3:  RMS(Cart)=    0.0000047327 RMS(Int)=    0.0000056300
 Iter   4:  RMS(Cart)=    0.0000002649 RMS(Int)=    0.0000002490
 Iter   5:  RMS(Cart)=    0.0000000197 RMS(Int)=    0.0000000176
done
Storing new coordinates                 .... done

                                .--------------------.
          ----------------------|Geometry convergence|-------------------------
          Item                value                   Tolerance       Converged
          ---------------------------------------------------------------------
          RMS gradient        0.0642434608            0.0001000000      NO
          MAX gradient        0.0971444646            0.0003000000      NO
          RMS step            0.1020419417            0.0020000000      NO
          MAX step            0.1427081552            0.0040000000      NO
          ........................................................
          Max(Bonds)      0.0755      Max(Angles)    2.59
          Max(Dihed)        0.00      Max(Improp)    4.70
          ---------------------------------------------------------------------

The optimization has not yet converged - more geometry cycles are needed


    ---------------------------------------------------------------------------
                         Redundant Internal Coordinates
                            (Angstroem and degrees)

        Definition                    Value    dE/dq     Step     New-Value
    ----------------------------------------------------------------------------
     1. B(H   1,P   0)                1.2649 -0.096846  0.0753    1.3402   
     2. B(H   2,P   0)                1.2649 -0.096864  0.0753    1.3402   
     3. B(H   3,P   0)                1.2649 -0.097144  0.0755    1.3405   
     4. A(H   1,P   0,H   3)          104.16  0.007166   -2.31    101.85   
     5. A(H   2,P   0,H   3)          104.16  0.017134   -2.59    101.56   
     6. A(H   1,P   0,H   2)          104.16  0.007241   -2.32    101.84   
     7. I(H   1,H   3,H   2,P   0)     66.55 -0.017158    4.70     71.25   
    ----------------------------------------------------------------------------

         *************************************************************
         *                GEOMETRY OPTIMIZATION CYCLE   2            *
         *************************************************************
---------------------------------
CARTESIAN COORDINATES (ANGSTROEM)
---------------------------------
  P     -0.048789   -0.067562    0.118636
  H     -0.415864    1.213731   -0.021847
  H     -0.413783   -0.587538   -1.061471
  H      1.281767    0.011759   -0.023288

----------------------------
CARTESIAN COORDINATES (A.U.)
----------------------------
  NO LB      ZA    FRAG     MASS         X           Y           Z
   0 P    15.0000    0    30.974   -0.092198   -0.127674    0.224189
   1 H     1.0000    0     1.008   -0.785869    2.293620   -0.041284
   2 H     1.0000    0     1.008   -0.781937   -1.110286   -2.005890
   3 H     1.0000    0     1.008    2.422188    0.022221   -0.044008

--------------------------------
INTERNAL COORDINATES (ANGSTROEM)
--------------------------------
 P      0   0   0     0.000000000000     0.00000000     0.00000000
 H      1   0   0     1.340220886666     0.00000000     0.00000000
 H      1   2   0     1.340241446169   101.77256852     0.00000000
 H      1   2   3     1.340452535387   101.78256036   104.60922524

---------------------------
INTERNAL COORDINATES (A.U.)
---------------------------
 P      0   0   0     0.000000000000     0.00000000     0.00000000
 H      1   0   0     2.532650434760     0.00000000     0.00000000
 H      1   2   0     2.532689286591   101.77256852     0.00000000
 H      1   2   3     2.533088187401   101.78256036   104.60922524



           ************************************************************
           *        Program running with 8 parallel MPI-processes     *
           *              working on a common directory               *
           ************************************************************


           ************************************************************
           *        Program running with 8 parallel MPI-processes     *
           *              working on a common directory               *
           ************************************************************

Diagonalization of the overlap matrix:
Smallest eigenvalue                        ... 1.709e-02
Time for diagonalization                   ...    0.000 sec
Threshold for overlap eigenvalues          ... 1.000e-08
Number of eigenvalues below threshold      ... 0
Time for construction of square roots      ...    0.000 sec
Total time needed                          ...    0.001 sec

-------------------
DFT GRID GENERATION
-------------------

General Integration Accuracy     IntAcc      ...  4.340
Radial Grid Type                 RadialGrid  ... Gauss-Chebyshev
Angular Grid (max. acc.)         AngularGrid ... Lebedev-110
Angular grid pruning method      GridPruning ... 3 (G Style)
Weight generation scheme         WeightScheme... Becke
Basis function cutoff            BFCut       ...    1.0000e-11
Integration weight cutoff        WCut        ...    1.0000e-14
Grids for H and He will be reduced by one unit

# of grid points (after initial pruning)     ...   4188 (   0.0 sec)
# of grid points (after weights+screening)   ...   4137 (   0.0 sec)
nearest neighbour list constructed           ...    0.0 sec
Grid point re-assignment to atoms done       ...    0.0 sec
Grid point division into batches done        ...    0.0 sec
Reduced shell lists constructed in    0.0 sec

Total number of grid points                  ...     4137
Total number of batches                      ...       66
Average number of points per batch           ...       62
Average number of grid points per atom       ...     1034
Average number of shells per batch           ...    15.20 (89.41%)
Average number of basis functions per batch  ...    29.40 (89.09%)
Average number of large shells per batch     ...    14.70 (96.71%)
Average number of large basis fcns per batch ...    28.30 (96.26%)
Maximum spatial batch extension              ...  13.40, 18.83, 19.08 au
Average spatial batch extension              ...   0.64,  0.77,  0.75 au

Time for grid setup =    0.142 sec

--------------
SCF ITERATIONS
--------------
ITER       Energy         Delta-E        Max-DP      RMS-DP      [F,P]     Damp
               ***  Starting incremental Fock matrix formation  ***
  0   -343.0742301530   0.000000000000 0.01120987  0.00081714  0.0189882 0.7000
                      *** Initiating the SOSCF procedure ***
                      *** Re-Reading the Fockian *** 
                      *** Removing any level shift *** 
ITER      Energy       Delta-E        Grad      Rot      Max-DP    RMS-DP
  1   -343.07495890  -0.0007287472  0.002518  0.002518  0.041572  0.002646
               *** Restarting incremental Fock matrix formation ***
  2   -343.07666720  -0.0017083027  0.002287  0.004562  0.013803  0.000855
  3   -343.07672282  -0.0000556175  0.001033  0.001283  0.004763  0.000262
  4   -343.07673090  -0.0000080748  0.000172  0.000221  0.000574  0.000045
  5   -343.07673107  -0.0000001794  0.000051  0.000051  0.000169  0.000011
  6   -343.07673109  -0.0000000178  0.000009  0.000022  0.000086  0.000005
                 **** Energy Check signals convergence ****
              ***Rediagonalizing the Fockian in SOSCF/NRSCF***

               *****************************************************
               *                     SUCCESS                       *
               *           SCF CONVERGED AFTER   7 CYCLES          *
               *****************************************************

Setting up the final grid:

General Integration Accuracy     IntAcc      ...  4.670
Radial Grid Type                 RadialGrid  ... Gauss-Chebyshev
Angular Grid (max. acc.)         AngularGrid ... Lebedev-302
Angular grid pruning method      GridPruning ... 3 (G Style)
Weight generation scheme         WeightScheme... Becke
Basis function cutoff            BFCut       ...    1.0000e-11
Integration weight cutoff        WCut        ...    1.0000e-14
Grids for H and He will be reduced by one unit

# of grid points (after initial pruning)     ...  17028 (   0.0 sec)
# of grid points (after weights+screening)   ...  16785 (   0.0 sec)
nearest neighbour list constructed           ...    0.0 sec
Grid point re-assignment to atoms done       ...    0.0 sec
Grid point division into batches done        ...    0.0 sec
Reduced shell lists constructed in    0.0 sec

Total number of grid points                  ...    16785
Total number of batches                      ...      264
Average number of points per batch           ...       63
Average number of grid points per atom       ...     4196
Average number of shells per batch           ...    14.94 (87.89%)
Average number of basis functions per batch  ...    28.71 (86.99%)
Average number of large shells per batch     ...    14.18 (94.88%)
Average number of large basis fcns per batch ...    27.41 (95.49%)
Maximum spatial batch extension              ...  17.26, 15.80, 14.80 au
Average spatial batch extension              ...   0.47,  0.43,  0.43 au

Final grid set up in    0.2 sec
Final integration                            ... done (   0.6 sec)
Change in XC energy                          ...    -0.000233422
Integrated number of electrons               ...    17.999998081
Previous integrated no of electrons          ...    18.000599307
Total Energy       :         -343.07696452 Eh           -9335.59882 eV
  Last Energy change         ...   -1.8923e-09  Tolerance :   1.0000e-08
  Last MAX-Density change    ...    7.1488e-06  Tolerance :   1.0000e-07
             **** THE GBW FILE WAS UPDATED (phosphine_B3LYP_cc-pVDZ_OPT.gbw) ****
             **** DENSITY FILE WAS UPDATED (phosphine_B3LYP_cc-pVDZ_OPT.scfp) ****
             **** ENERGY FILE WAS UPDATED (phosphine_B3LYP_cc-pVDZ_OPT.en.tmp) ****
             **** THE GBW FILE WAS UPDATED (phosphine_B3LYP_cc-pVDZ_OPT.gbw) ****
             **** DENSITY FILE WAS UPDATED (phosphine_B3LYP_cc-pVDZ_OPT.scfp) ****
Total SCF time: 0 days 0 hours 0 min 3 sec 

-------------------------   --------------------
FINAL SINGLE POINT ENERGY      -343.076964516814
-------------------------   --------------------



           ************************************************************
           *        Program running with 8 parallel MPI-processes     *
           *              working on a common directory               *
           ************************************************************
------------------------------------------------------------------------------
                         ORCA SCF GRADIENT CALCULATION
------------------------------------------------------------------------------

Gradient of the Kohn-Sham DFT energy:
Kohn-Sham wavefunction type      ... RKS
Hartree-Fock exchange scaling    ...    0.200
Number of operators              ...    1
Number of atoms                  ...    4
Basis set dimensions             ...   33
Integral neglect threshold       ... 2.5e-11
Integral primitive cutoff        ... 2.5e-12

Nuclear repulsion gradient       ... done
One Electron Gradient            ... done
Pre-screening matrix             ... done
Starting the two electron gradient:
Two electron gradient done
Exchange-correlation gradient    ... done

------------------
CARTESIAN GRADIENT
------------------

   1   P   :    0.027963976    0.039533378   -0.068110461
   2   H   :    0.007192635   -0.042237443    0.012691989
   3   H   :    0.007279961    0.010082104    0.042895187
   4   H   :   -0.042436573   -0.007378039    0.012523285

Difference to translation invariance:
           :   -0.0000000000    0.0000000000   -0.0000000000

Norm of the cartesian gradient     ...    0.1139627292
RMS gradient                       ...    0.0328982062
MAX gradient                       ...    0.0681104614

-------
TIMINGS
-------

Total SCF gradient time            ...        0.275 sec

One electron gradient       ....       0.003 sec  (  1.1%)
Prescreening matrices       ....       0.009 sec  (  3.3%)
Two electron gradient       ....       0.109 sec  ( 39.6%)
XC gradient                 ....       0.033 sec  ( 12.0%)
------------------------------------------------------------------------------
                         ORCA GEOMETRY RELAXATION STEP
------------------------------------------------------------------------------

Reading the OPT-File                    .... done
Getting information on internals        .... done
Copying old internal coords+grads       .... done
Making the new internal coordinates     .... (new redundants).... done
Validating the new internal coordinates .... (new redundants).... done
Calculating the B-matrix                .... done
Calculating the G,G- and P matrices     .... done
Transforming gradient to internals      .... done
Projecting the internal gradient        .... done
Number of atoms                         ....   4
Number of internal coordinates          ....   7
Current Energy                          ....  -343.076964517 Eh
Current gradient norm                   ....     0.113962729 Eh/bohr
Maximum allowed component of the step   ....  0.300
Current trust radius                    ....  0.300
Updating the Hessian (BFGS)             .... done
Forming the augmented Hessian           .... done
Diagonalizing the augmented Hessian     .... done
Last element of RFO vector              ....  0.961541306
Lowest eigenvalues of augmented Hessian:
 -0.020401136  0.151706796  0.380182897  0.415196423  0.462067735
Length of the computed step             ....  0.285645938
The final length of the internal step   ....  0.285645938
Converting the step to cartesian space:
 Initial RMS(Int)=    0.1079640163
Transforming coordinates:
 Iter   0:  RMS(Cart)=    0.0527335596 RMS(Int)=    0.1082378344
 Iter   1:  RMS(Cart)=    0.0037423997 RMS(Int)=    0.0043067842
 Iter   2:  RMS(Cart)=    0.0002038832 RMS(Int)=    0.0002822733
 Iter   3:  RMS(Cart)=    0.0000136298 RMS(Int)=    0.0000136782
 Iter   4:  RMS(Cart)=    0.0000011715 RMS(Int)=    0.0000013622
 Iter   5:  RMS(Cart)=    0.0000000301 RMS(Int)=    0.0000000601
done
Storing new coordinates                 .... done

                                .--------------------.
          ----------------------|Geometry convergence|-------------------------
          Item                value                   Tolerance       Converged
          ---------------------------------------------------------------------
          Energy change      -0.0320804169            0.0000050000      NO
          RMS gradient        0.0300608589            0.0001000000      NO
          MAX gradient        0.0438916442            0.0003000000      NO
          RMS step            0.1079640163            0.0020000000      NO
          MAX step            0.1436500574            0.0040000000      NO
          ........................................................
          Max(Bonds)      0.0644      Max(Angles)    4.56
          Max(Dihed)        0.00      Max(Improp)    8.23
          ---------------------------------------------------------------------

The optimization has not yet converged - more geometry cycles are needed


    ---------------------------------------------------------------------------
                         Redundant Internal Coordinates
                            (Angstroem and degrees)

        Definition                    Value    dE/dq     Step     New-Value
    ----------------------------------------------------------------------------
     1. B(H   1,P   0)                1.3402 -0.043700  0.0641    1.4043   
     2. B(H   2,P   0)                1.3402 -0.043639  0.0640    1.4043   
     3. B(H   3,P   0)                1.3405 -0.043892  0.0644    1.4049   
     4. A(H   1,P   0,H   3)          101.78  0.007207   -4.14     97.64   
     5. A(H   2,P   0,H   3)          101.54  0.015833   -4.56     96.98   
     6. A(H   1,P   0,H   2)          101.77  0.007276   -4.16     97.61   
     7. I(H   1,H   3,H   2,P   0)     71.17 -0.015149    8.23     79.40   
    ----------------------------------------------------------------------------

         *************************************************************
         *                GEOMETRY OPTIMIZATION CYCLE   3            *
         *************************************************************
---------------------------------
CARTESIAN COORDINATES (ANGSTROEM)
---------------------------------
  P     -0.075680   -0.104457    0.183759
  H     -0.415087    1.239982   -0.038609
  H     -0.411307   -0.585802   -1.092027
  H      1.305405    0.020667   -0.041093

----------------------------
CARTESIAN COORDINATES (A.U.)
----------------------------
  NO LB      ZA    FRAG     MASS         X           Y           Z
   0 P    15.0000    0    30.974   -0.143014   -0.197396    0.347255
   1 H     1.0000    0     1.008   -0.784401    2.343227   -0.072960
   2 H     1.0000    0     1.008   -0.777259   -1.107005   -2.063632
   3 H     1.0000    0     1.008    2.466858    0.039055   -0.077655

--------------------------------
INTERNAL COORDINATES (ANGSTROEM)
--------------------------------
 P      0   0   0     0.000000000000     0.00000000     0.00000000
 H      1   0   0     1.404337152803     0.00000000     0.00000000
 H      1   2   0     1.404268223989    97.26925699     0.00000000
 H      1   2   3     1.404852250072    97.29544154    97.95364240

---------------------------
INTERNAL COORDINATES (A.U.)
---------------------------
 P      0   0   0     0.000000000000     0.00000000     0.00000000
 H      1   0   0     2.653812618488     0.00000000     0.00000000
 H      1   2   0     2.653682361907    97.26925699     0.00000000
 H      1   2   3     2.654786011260    97.29544154    97.95364240



           ************************************************************
           *        Program running with 8 parallel MPI-processes     *
           *              working on a common directory               *
           ************************************************************


           ************************************************************
           *        Program running with 8 parallel MPI-processes     *
           *              working on a common directory               *
           ************************************************************

Diagonalization of the overlap matrix:
Smallest eigenvalue                        ... 1.783e-02
Time for diagonalization                   ...    0.001 sec
Threshold for overlap eigenvalues          ... 1.000e-08
Number of eigenvalues below threshold      ... 0
Time for construction of square roots      ...    0.039 sec
Total time needed                          ...    0.040 sec

-------------------
DFT GRID GENERATION
-------------------

General Integration Accuracy     IntAcc      ...  4.340
Radial Grid Type                 RadialGrid  ... Gauss-Chebyshev
Angular Grid (max. acc.)         AngularGrid ... Lebedev-110
Angular grid pruning method      GridPruning ... 3 (G Style)
Weight generation scheme         WeightScheme... Becke
Basis function cutoff            BFCut       ...    1.0000e-11
Integration weight cutoff        WCut        ...    1.0000e-14
Grids for H and He will be reduced by one unit

# of grid points (after initial pruning)     ...   4188 (   0.0 sec)
# of grid points (after weights+screening)   ...   4140 (   0.0 sec)
nearest neighbour list constructed           ...    0.0 sec
Grid point re-assignment to atoms done       ...    0.0 sec
Grid point division into batches done        ...    0.0 sec
Reduced shell lists constructed in    0.0 sec

Total number of grid points                  ...     4140
Total number of batches                      ...       67
Average number of points per batch           ...       61
Average number of grid points per atom       ...     1035
Average number of shells per batch           ...    15.00 (88.24%)
Average number of basis functions per batch  ...    29.00 (87.88%)
Average number of large shells per batch     ...    14.00 (93.33%)
Average number of large basis fcns per batch ...    27.20 (93.79%)
Maximum spatial batch extension              ...  23.60, 18.95, 18.49 au
Average spatial batch extension              ...   0.88,  0.82,  0.78 au

Time for grid setup =    0.478 sec

--------------
SCF ITERATIONS
--------------
ITER       Energy         Delta-E        Max-DP      RMS-DP      [F,P]     Damp
               ***  Starting incremental Fock matrix formation  ***
  0   -343.0879023565   0.000000000000 0.00990751  0.00072979  0.0146184 0.7000
                      *** Initiating the SOSCF procedure ***
                      *** Re-Reading the Fockian *** 
                      *** Removing any level shift *** 
ITER      Energy       Delta-E        Grad      Rot      Max-DP    RMS-DP
  1   -343.08851066  -0.0006083008  0.002977  0.002977  0.035736  0.002429
               *** Restarting incremental Fock matrix formation ***
  2   -343.09003421  -0.0015235573  0.002133  0.005594  0.011632  0.000772
  3   -343.09008464  -0.0000504212  0.000705  0.001053  0.003364  0.000196
  4   -343.09008954  -0.0000049052  0.000236  0.000293  0.000520  0.000045
  5   -343.09008980  -0.0000002557  0.000040  0.000046  0.000232  0.000013
  6   -343.09008981  -0.0000000137  0.000018  0.000034  0.000114  0.000006
                 **** Energy Check signals convergence ****
              ***Rediagonalizing the Fockian in SOSCF/NRSCF***

               *****************************************************
               *                     SUCCESS                       *
               *           SCF CONVERGED AFTER   7 CYCLES          *
               *****************************************************

Setting up the final grid:

General Integration Accuracy     IntAcc      ...  4.670
Radial Grid Type                 RadialGrid  ... Gauss-Chebyshev
Angular Grid (max. acc.)         AngularGrid ... Lebedev-302
Angular grid pruning method      GridPruning ... 3 (G Style)
Weight generation scheme         WeightScheme... Becke
Basis function cutoff            BFCut       ...    1.0000e-11
Integration weight cutoff        WCut        ...    1.0000e-14
Grids for H and He will be reduced by one unit

# of grid points (after initial pruning)     ...  17028 (   0.0 sec)
# of grid points (after weights+screening)   ...  16792 (   0.0 sec)
nearest neighbour list constructed           ...    0.0 sec
Grid point re-assignment to atoms done       ...    0.0 sec
Grid point division into batches done        ...    0.0 sec
Reduced shell lists constructed in    0.0 sec

Total number of grid points                  ...    16792
Total number of batches                      ...      265
Average number of points per batch           ...       63
Average number of grid points per atom       ...     4198
Average number of shells per batch           ...    14.86 (87.39%)
Average number of basis functions per batch  ...    28.57 (86.58%)
Average number of large shells per batch     ...    13.89 (93.46%)
Average number of large basis fcns per batch ...    26.80 (93.80%)
Maximum spatial batch extension              ...  18.86, 18.68, 17.01 au
Average spatial batch extension              ...   0.50,  0.52,  0.47 au

Final grid set up in    0.3 sec
Final integration                            ... done (   0.9 sec)
Change in XC energy                          ...    -0.000154778
Integrated number of electrons               ...    17.999988803
Previous integrated no of electrons          ...    17.999919823
Total Energy       :         -343.09024459 Eh           -9335.96019 eV
  Last Energy change         ...   -4.3038e-09  Tolerance :   1.0000e-08
  Last MAX-Density change    ...    3.4198e-06  Tolerance :   1.0000e-07
             **** THE GBW FILE WAS UPDATED (phosphine_B3LYP_cc-pVDZ_OPT.gbw) ****
             **** DENSITY FILE WAS UPDATED (phosphine_B3LYP_cc-pVDZ_OPT.scfp) ****
             **** ENERGY FILE WAS UPDATED (phosphine_B3LYP_cc-pVDZ_OPT.en.tmp) ****
             **** THE GBW FILE WAS UPDATED (phosphine_B3LYP_cc-pVDZ_OPT.gbw) ****
             **** DENSITY FILE WAS UPDATED (phosphine_B3LYP_cc-pVDZ_OPT.scfp) ****
Total SCF time: 0 days 0 hours 0 min 4 sec 

-------------------------   --------------------
FINAL SINGLE POINT ENERGY      -343.090244592794
-------------------------   --------------------



           ************************************************************
           *        Program running with 8 parallel MPI-processes     *
           *              working on a common directory               *
           ************************************************************
------------------------------------------------------------------------------
                         ORCA SCF GRADIENT CALCULATION
------------------------------------------------------------------------------

Gradient of the Kohn-Sham DFT energy:
Kohn-Sham wavefunction type      ... RKS
Hartree-Fock exchange scaling    ...    0.200
Number of operators              ...    1
Number of atoms                  ...    4
Basis set dimensions             ...   33
Integral neglect threshold       ... 2.5e-11
Integral primitive cutoff        ... 2.5e-12

Nuclear repulsion gradient       ... done
One Electron Gradient            ... done
Pre-screening matrix             ... done
Starting the two electron gradient:
Two electron gradient done
Exchange-correlation gradient    ... done

------------------
CARTESIAN GRADIENT
------------------

   1   P   :    0.010018893    0.014540817   -0.024508836
   2   H   :    0.000279658   -0.011253840    0.006069287
   3   H   :    0.000559054    0.000344777    0.012691220
   4   H   :   -0.010857605   -0.003631753    0.005748329

Difference to translation invariance:
           :   -0.0000000000   -0.0000000000   -0.0000000000

Norm of the cartesian gradient     ...    0.0374390037
RMS gradient                       ...    0.0108077094
MAX gradient                       ...    0.0245088361

-------
TIMINGS
-------

Total SCF gradient time            ...        0.250 sec

One electron gradient       ....       0.008 sec  (  3.2%)
Prescreening matrices       ....       0.010 sec  (  4.2%)
Two electron gradient       ....       0.069 sec  ( 27.6%)
XC gradient                 ....       0.021 sec  (  8.2%)
------------------------------------------------------------------------------
                         ORCA GEOMETRY RELAXATION STEP
------------------------------------------------------------------------------

Reading the OPT-File                    .... done
Getting information on internals        .... done
Copying old internal coords+grads       .... done
Making the new internal coordinates     .... (new redundants).... done
Validating the new internal coordinates .... (new redundants).... done
Calculating the B-matrix                .... done
Calculating the G,G- and P matrices     .... done
Transforming gradient to internals      .... done
Projecting the internal gradient        .... done
Number of atoms                         ....   4
Number of internal coordinates          ....   7
Current Energy                          ....  -343.090244593 Eh
Current gradient norm                   ....     0.037439004 Eh/bohr
Maximum allowed component of the step   ....  0.300
Current trust radius                    ....  0.300
Updating the Hessian (BFGS)             .... done
Forming the augmented Hessian           .... done
Diagonalizing the augmented Hessian     .... done
Last element of RFO vector              ....  0.987728819
Lowest eigenvalues of augmented Hessian:
 -0.003458167  0.118705590  0.339823015  0.415196427  0.454465973
Length of the computed step             ....  0.158118989
The final length of the internal step   ....  0.158118989
Converting the step to cartesian space:
 Initial RMS(Int)=    0.0597633605
Transforming coordinates:
 Iter   0:  RMS(Cart)=    0.0304042615 RMS(Int)=    0.0598963504
 Iter   1:  RMS(Cart)=    0.0014015304 RMS(Int)=    0.0016525200
 Iter   2:  RMS(Cart)=    0.0000371052 RMS(Int)=    0.0000573689
 Iter   3:  RMS(Cart)=    0.0000024288 RMS(Int)=    0.0000025695
 Iter   4:  RMS(Cart)=    0.0000000687 RMS(Int)=    0.0000001158
done
Storing new coordinates                 .... done

                                .--------------------.
          ----------------------|Geometry convergence|-------------------------
          Item                value                   Tolerance       Converged
          ---------------------------------------------------------------------
          Energy change      -0.0132800760            0.0000050000      NO
          RMS gradient        0.0091113344            0.0001000000      NO
          MAX gradient        0.0119192550            0.0003000000      NO
          RMS step            0.0597633605            0.0020000000      NO
          MAX step            0.0922414093            0.0040000000      NO
          ........................................................
          Max(Bonds)      0.0285      Max(Angles)    2.95
          Max(Dihed)        0.00      Max(Improp)    5.29
          ---------------------------------------------------------------------

The optimization has not yet converged - more geometry cycles are needed


    ---------------------------------------------------------------------------
                         Redundant Internal Coordinates
                            (Angstroem and degrees)

        Definition                    Value    dE/dq     Step     New-Value
    ----------------------------------------------------------------------------
     1. B(H   1,P   0)                1.4043 -0.011821  0.0283    1.4326   
     2. B(H   2,P   0)                1.4043 -0.011761  0.0282    1.4325   
     3. B(H   3,P   0)                1.4049 -0.011919  0.0285    1.4333   
     4. A(H   1,P   0,H   3)           97.30  0.004313   -2.93     94.37   
     5. A(H   2,P   0,H   3)           96.90  0.008189   -2.95     93.95   
     6. A(H   1,P   0,H   2)           97.27  0.004358   -2.94     94.33   
     7. I(H   1,H   3,H   2,P   0)     78.98 -0.007505    5.29     84.27   
    ----------------------------------------------------------------------------

         *************************************************************
         *                GEOMETRY OPTIMIZATION CYCLE   4            *
         *************************************************************
---------------------------------
CARTESIAN COORDINATES (ANGSTROEM)
---------------------------------
  P     -0.091382   -0.127622    0.222698
  H     -0.406705    1.242241   -0.053843
  H     -0.404529   -0.574133   -1.101891
  H      1.305946    0.029904   -0.054934

----------------------------
CARTESIAN COORDINATES (A.U.)
----------------------------
  NO LB      ZA    FRAG     MASS         X           Y           Z
   0 P    15.0000    0    30.974   -0.172686   -0.241170    0.420839
   1 H     1.0000    0     1.008   -0.768562    2.347495   -0.101749
   2 H     1.0000    0     1.008   -0.764449   -1.084955   -2.082273
   3 H     1.0000    0     1.008    2.467881    0.056510   -0.103810

--------------------------------
INTERNAL COORDINATES (ANGSTROEM)
--------------------------------
 P      0   0   0     0.000000000000     0.00000000     0.00000000
 H      1   0   0     1.432629738620     0.00000000     0.00000000
 H      1   2   0     1.432470421337    94.09679173     0.00000000
 H      1   2   3     1.433324626254    94.13442414    94.23194217

---------------------------
INTERNAL COORDINATES (A.U.)
---------------------------
 P      0   0   0     0.000000000000     0.00000000     0.00000000
 H      1   0   0     2.707277857303     0.00000000     0.00000000
 H      1   2   0     2.706976791269    94.09679173     0.00000000
 H      1   2   3     2.708591004626    94.13442414    94.23194217



           ************************************************************
           *        Program running with 8 parallel MPI-processes     *
           *              working on a common directory               *
           ************************************************************


           ************************************************************
           *        Program running with 8 parallel MPI-processes     *
           *              working on a common directory               *
           ************************************************************

Diagonalization of the overlap matrix:
Smallest eigenvalue                        ... 1.785e-02
Time for diagonalization                   ...    0.001 sec
Threshold for overlap eigenvalues          ... 1.000e-08
Number of eigenvalues below threshold      ... 0
Time for construction of square roots      ...    0.000 sec
Total time needed                          ...    0.001 sec

-------------------
DFT GRID GENERATION
-------------------

General Integration Accuracy     IntAcc      ...  4.340
Radial Grid Type                 RadialGrid  ... Gauss-Chebyshev
Angular Grid (max. acc.)         AngularGrid ... Lebedev-110
Angular grid pruning method      GridPruning ... 3 (G Style)
Weight generation scheme         WeightScheme... Becke
Basis function cutoff            BFCut       ...    1.0000e-11
Integration weight cutoff        WCut        ...    1.0000e-14
Grids for H and He will be reduced by one unit

# of grid points (after initial pruning)     ...   4188 (   0.0 sec)
# of grid points (after weights+screening)   ...   4139 (   0.0 sec)
nearest neighbour list constructed           ...    0.0 sec
Grid point re-assignment to atoms done       ...    0.0 sec
Grid point division into batches done        ...    0.0 sec
Reduced shell lists constructed in    0.0 sec

Total number of grid points                  ...     4139
Total number of batches                      ...       66
Average number of points per batch           ...       62
Average number of grid points per atom       ...     1035
Average number of shells per batch           ...    14.70 (86.47%)
Average number of basis functions per batch  ...    28.10 (85.15%)
Average number of large shells per batch     ...    13.60 (92.52%)
Average number of large basis fcns per batch ...    26.40 (93.95%)
Maximum spatial batch extension              ...  20.99, 18.99, 17.83 au
Average spatial batch extension              ...   0.97,  0.91,  0.82 au

Time for grid setup =    0.780 sec

--------------
SCF ITERATIONS
--------------
ITER       Energy         Delta-E        Max-DP      RMS-DP      [F,P]     Damp
               ***  Starting incremental Fock matrix formation  ***
  0   -343.0916204970   0.000000000000 0.00417132  0.00034794  0.0062426 0.7000
                      *** Initiating the SOSCF procedure ***
                      *** Re-Reading the Fockian *** 
                      *** Removing any level shift *** 
ITER      Energy       Delta-E        Grad      Rot      Max-DP    RMS-DP
  1   -343.09176786  -0.0001473608  0.001383  0.001383  0.014518  0.001148
               *** Restarting incremental Fock matrix formation ***
  2   -343.09214442  -0.0003765640  0.001004  0.002461  0.004178  0.000327
  3   -343.09215568  -0.0000112540  0.000348  0.000390  0.001149  0.000076
  4   -343.09215663  -0.0000009556  0.000114  0.000145  0.000205  0.000019
  5   -343.09215670  -0.0000000673  0.000019  0.000024  0.000117  0.000006
  6   -343.09215670  -0.0000000033  0.000010  0.000017  0.000054  0.000003
                 **** Energy Check signals convergence ****
              ***Rediagonalizing the Fockian in SOSCF/NRSCF***

               *****************************************************
               *                     SUCCESS                       *
               *           SCF CONVERGED AFTER   7 CYCLES          *
               *****************************************************

Setting up the final grid:

General Integration Accuracy     IntAcc      ...  4.670
Radial Grid Type                 RadialGrid  ... Gauss-Chebyshev
Angular Grid (max. acc.)         AngularGrid ... Lebedev-302
Angular grid pruning method      GridPruning ... 3 (G Style)
Weight generation scheme         WeightScheme... Becke
Basis function cutoff            BFCut       ...    1.0000e-11
Integration weight cutoff        WCut        ...    1.0000e-14
Grids for H and He will be reduced by one unit

# of grid points (after initial pruning)     ...  17028 (   0.0 sec)
# of grid points (after weights+screening)   ...  16798 (   0.0 sec)
nearest neighbour list constructed           ...    0.0 sec
Grid point re-assignment to atoms done       ...    0.0 sec
Grid point division into batches done        ...    0.0 sec
Reduced shell lists constructed in    0.0 sec

Total number of grid points                  ...    16798
Total number of batches                      ...      264
Average number of points per batch           ...       63
Average number of grid points per atom       ...     4200
Average number of shells per batch           ...    14.62 (85.99%)
Average number of basis functions per batch  ...    28.09 (85.12%)
Average number of large shells per batch     ...    13.59 (92.96%)
Average number of large basis fcns per batch ...    26.12 (92.98%)
Maximum spatial batch extension              ...  18.84, 17.12, 16.86 au
Average spatial batch extension              ...   0.51,  0.53,  0.49 au

Final grid set up in    0.2 sec
Final integration                            ... done (   0.5 sec)
Change in XC energy                          ...    -0.000067219
Integrated number of electrons               ...    17.999983990
Previous integrated no of electrons          ...    17.999916524
Total Energy       :         -343.09222392 Eh           -9336.01405 eV
  Last Energy change         ...   -1.1416e-09  Tolerance :   1.0000e-08
  Last MAX-Density change    ...    1.1763e-06  Tolerance :   1.0000e-07
             **** THE GBW FILE WAS UPDATED (phosphine_B3LYP_cc-pVDZ_OPT.gbw) ****
             **** DENSITY FILE WAS UPDATED (phosphine_B3LYP_cc-pVDZ_OPT.scfp) ****
             **** ENERGY FILE WAS UPDATED (phosphine_B3LYP_cc-pVDZ_OPT.en.tmp) ****
             **** THE GBW FILE WAS UPDATED (phosphine_B3LYP_cc-pVDZ_OPT.gbw) ****
             **** DENSITY FILE WAS UPDATED (phosphine_B3LYP_cc-pVDZ_OPT.scfp) ****
Total SCF time: 0 days 0 hours 0 min 3 sec 

-------------------------   --------------------
FINAL SINGLE POINT ENERGY      -343.092223922575
-------------------------   --------------------



           ************************************************************
           *        Program running with 8 parallel MPI-processes     *
           *              working on a common directory               *
           ************************************************************
------------------------------------------------------------------------------
                         ORCA SCF GRADIENT CALCULATION
------------------------------------------------------------------------------

Gradient of the Kohn-Sham DFT energy:
Kohn-Sham wavefunction type      ... RKS
Hartree-Fock exchange scaling    ...    0.200
Number of operators              ...    1
Number of atoms                  ...    4
Basis set dimensions             ...   33
Integral neglect threshold       ... 2.5e-11
Integral primitive cutoff        ... 2.5e-12

Nuclear repulsion gradient       ... done
One Electron Gradient            ... done
Pre-screening matrix             ... done
Starting the two electron gradient:
Two electron gradient done
Exchange-correlation gradient    ... done

------------------
CARTESIAN GRADIENT
------------------

   1   P   :    0.001490541    0.002344382   -0.003643636
   2   H   :   -0.000518378   -0.000734373    0.001275471
   3   H   :   -0.000374376   -0.000773666    0.001237609
   4   H   :   -0.000597787   -0.000836343    0.001130557

Difference to translation invariance:
           :    0.0000000000    0.0000000000   -0.0000000000

Norm of the cartesian gradient     ...    0.0052947274
RMS gradient                       ...    0.0015284562
MAX gradient                       ...    0.0036436360

-------
TIMINGS
-------

Total SCF gradient time            ...        0.281 sec

One electron gradient       ....       0.003 sec  (  1.1%)
Prescreening matrices       ....       0.008 sec  (  2.7%)
Two electron gradient       ....       0.100 sec  ( 35.5%)
XC gradient                 ....       0.033 sec  ( 11.8%)
------------------------------------------------------------------------------
                         ORCA GEOMETRY RELAXATION STEP
------------------------------------------------------------------------------

Reading the OPT-File                    .... done
Getting information on internals        .... done
Copying old internal coords+grads       .... done
Making the new internal coordinates     .... (new redundants).... done
Validating the new internal coordinates .... (new redundants).... done
Calculating the B-matrix                .... done
Calculating the G,G- and P matrices     .... done
Transforming gradient to internals      .... done
Projecting the internal gradient        .... done
Number of atoms                         ....   4
Number of internal coordinates          ....   7
Current Energy                          ....  -343.092223923 Eh
Current gradient norm                   ....     0.005294727 Eh/bohr
Maximum allowed component of the step   ....  0.300
Current trust radius                    ....  0.300
Updating the Hessian (BFGS)             .... done
Forming the augmented Hessian           .... done
Diagonalizing the augmented Hessian     .... done
Last element of RFO vector              ....  0.999380232
Lowest eigenvalues of augmented Hessian:
 -0.000125160  0.098653104  0.340311341  0.415196452  0.458093058
Length of the computed step             ....  0.035223412
The final length of the internal step   ....  0.035223412
Converting the step to cartesian space:
 Initial RMS(Int)=    0.0133131984
Transforming coordinates:
 Iter   0:  RMS(Cart)=    0.0079057578 RMS(Int)=    0.0133138319
 Iter   1:  RMS(Cart)=    0.0000758676 RMS(Int)=    0.0000968819
 Iter   2:  RMS(Cart)=    0.0000005068 RMS(Int)=    0.0000007148
 Iter   3:  RMS(Cart)=    0.0000000082 RMS(Int)=    0.0000000103
done
Storing new coordinates                 .... done

                                .--------------------.
          ----------------------|Geometry convergence|-------------------------
          Item                value                   Tolerance       Converged
          ---------------------------------------------------------------------
          Energy change      -0.0019793298            0.0000050000      NO
          RMS gradient        0.0013849799            0.0001000000      NO
          MAX gradient        0.0020539225            0.0003000000      NO
          RMS step            0.0133131984            0.0020000000      NO
          MAX step            0.0227389311            0.0040000000      NO
          ........................................................
          Max(Bonds)      0.0043      Max(Angles)    0.79
          Max(Dihed)        0.00      Max(Improp)    1.30
          ---------------------------------------------------------------------

The optimization has not yet converged - more geometry cycles are needed


    ---------------------------------------------------------------------------
                         Redundant Internal Coordinates
                            (Angstroem and degrees)

        Definition                    Value    dE/dq     Step     New-Value
    ----------------------------------------------------------------------------
     1. B(H   1,P   0)                1.4326 -0.000852  0.0043    1.4369   
     2. B(H   2,P   0)                1.4325 -0.000807  0.0042    1.4367   
     3. B(H   3,P   0)                1.4333 -0.000891  0.0043    1.4377   
     4. A(H   1,P   0,H   3)           94.13  0.001257   -0.78     93.35   
     5. A(H   2,P   0,H   3)           93.91  0.002054   -0.71     93.21   
     6. A(H   1,P   0,H   2)           94.10  0.001261   -0.79     93.31   
[...]

                         BASIS SET STATISTICS AND STARTUP INFO

 # of primitive gaussian shells          ...   65
 # of primitive gaussian functions       ...  105
 # of contracted shells                  ...   17
 # of contracted basis functions         ...   33
 Highest angular momentum                ...    2
 Maximum contraction depth               ...   11
 Integral package used                   ... LIBINT
 Integral threshhold            Thresh   ...  2.500e-11
 Primitive cut-off              TCut     ...  2.500e-12


------------------------------ INTEGRAL EVALUATION ----------------------------


 * One electron integrals 
 Pre-screening matrix                    ... done
 Shell pair data                         ... done (   0.000 sec)



           ************************************************************
           *        Program running with 8 parallel MPI-processes     *
           *              working on a common directory               *
           ************************************************************
-------------------------------------------------------------------------------
                                 ORCA SCF
-------------------------------------------------------------------------------

------------
SCF SETTINGS
------------
Hamiltonian:
 Density Functional     Method          .... DFT(GTOs)
 Exchange Functional    Exchange        .... B88
   X-Alpha parameter    XAlpha          ....  0.666667
   Becke's b parameter  XBeta           ....  0.004200
 Correlation Functional Correlation     .... LYP
 LDA part of GGA corr.  LDAOpt          .... VWN-5
 Gradients option       PostSCFGGA      .... off
 Hybrid DFT is turned on
   Fraction HF Exchange ScalHFX         ....  0.200000
   Scaling of DF-GGA-X  ScalDFX         ....  0.720000
   Scaling of DF-GGA-C  ScalDFC         ....  0.810000
   Scaling of DF-LDA-C  ScalLDAC        ....  1.000000
   Perturbative correction              ....  0.000000
   Density functional embedding theory  .... OFF
   NL short-range parameter             ....  4.800000


General Settings:
 Integral files         IntName         .... phosphine_B3LYP_cc-pVDZ_OPT
 Hartree-Fock type      HFTyp           .... RHF
 Total Charge           Charge          ....    0
 Multiplicity           Mult            ....    1
 Number of Electrons    NEL             ....   18
 Basis Dimension        Dim             ....   33
 Nuclear Repulsion      ENuc            ....     17.3474116218 Eh

Convergence Acceleration:
 DIIS                   CNVDIIS         .... on
   Start iteration      DIISMaxIt       ....    12
   Startup error        DIISStart       ....  0.200000
   # of expansion vecs  DIISMaxEq       ....     5
   Bias factor          DIISBfac        ....   1.050
   Max. coefficient     DIISMaxC        ....  10.000
 Newton-Raphson         CNVNR           .... off
 SOSCF                  CNVSOSCF        .... on
   Start iteration      SOSCFMaxIt      ....   150
   Startup grad/error   SOSCFStart      ....  0.003300
 Level Shifting         CNVShift        .... on
   Level shift para.    LevelShift      ....    0.2500
   Turn off err/grad.   ShiftErr        ....    0.0010
 Zerner damping         CNVZerner       .... off
 Static damping         CNVDamp         .... on
   Fraction old density DampFac         ....    0.7000
   Max. Damping (<1)    DampMax         ....    0.9800
   Min. Damping (>=0)   DampMin         ....    0.0000
   Turn off err/grad.   DampErr         ....    0.1000
 Fernandez-Rico         CNVRico         .... off

SCF Procedure:
 Maximum # iterations   MaxIter         ....   125
 SCF integral mode      SCFMode         .... Direct
   Integral package                     .... LIBINT
 Reset frequency        DirectResetFreq ....    20
 Integral Threshold     Thresh          ....  2.500e-11 Eh
 Primitive CutOff       TCut            ....  2.500e-12 Eh

Convergence Tolerance:
 Convergence Check Mode ConvCheckMode   .... Total+1el-Energy
 Convergence forced     ConvForced      .... 0
 Energy Change          TolE            ....  1.000e-08 Eh
 1-El. energy change                    ....  1.000e-05 Eh
 Orbital Gradient       TolG            ....  1.000e-05
 Orbital Rotation angle TolX            ....  1.000e-05
 DIIS Error             TolErr          ....  5.000e-07


Diagonalization of the overlap matrix:
Smallest eigenvalue                        ... 1.765e-02
Time for diagonalization                   ...    0.001 sec
Threshold for overlap eigenvalues          ... 1.000e-08
Number of eigenvalues below threshold      ... 0
Time for construction of square roots      ...    0.000 sec
Total time needed                          ...    0.001 sec

---------------------
INITIAL GUESS: MOREAD
---------------------
Guess MOs are being read from file: phosphine_B3LYP_cc-pVDZ_OPT.gbw
Input Geometry matches current geometry (good)
Input basis set matches current basis set (good)
MOs were renormalized
MOs were reorthogonalized (Cholesky)
                      ------------------
                      INITIAL GUESS DONE (   0.0 sec)
                      ------------------
-------------------
DFT GRID GENERATION
-------------------

General Integration Accuracy     IntAcc      ...  4.340
Radial Grid Type                 RadialGrid  ... Gauss-Chebyshev
Angular Grid (max. acc.)         AngularGrid ... Lebedev-110
Angular grid pruning method      GridPruning ... 3 (G Style)
Weight generation scheme         WeightScheme... Becke
Basis function cutoff            BFCut       ...    1.0000e-11
Integration weight cutoff        WCut        ...    1.0000e-14
Grids for H and He will be reduced by one unit

# of grid points (after initial pruning)     ...   4188 (   0.0 sec)
# of grid points (after weights+screening)   ...   4140 (   0.0 sec)
nearest neighbour list constructed           ...    0.0 sec
Grid point re-assignment to atoms done       ...    0.0 sec
Grid point division into batches done        ...    0.0 sec
Reduced shell lists constructed in    0.0 sec

Total number of grid points                  ...     4140
Total number of batches                      ...       66
Average number of points per batch           ...       62
Average number of grid points per atom       ...     1035
Average number of shells per batch           ...    14.60 (85.88%)
Average number of basis functions per batch  ...    27.80 (84.24%)
Average number of large shells per batch     ...    13.60 (93.15%)
Average number of large basis fcns per batch ...    26.40 (94.96%)
Maximum spatial batch extension              ...  21.75, 20.99, 17.83 au
Average spatial batch extension              ...   0.99,  1.01,  0.86 au

Time for grid setup =    0.104 sec

--------------
SCF ITERATIONS
--------------
ITER       Energy         Delta-E        Max-DP      RMS-DP      [F,P]     Damp
               ***  Starting incremental Fock matrix formation  ***
                      *** Initiating the SOSCF procedure ***
                      *** Re-Reading the Fockian *** 
                      *** Removing any level shift *** 
ITER      Energy       Delta-E        Grad      Rot      Max-DP    RMS-DP
  0   -343.09226472 -343.0922647167  0.000023  0.000023  0.000046  0.000004
               *** Restarting incremental Fock matrix formation ***
                 **** Energy Check signals convergence ****
              ***Rediagonalizing the Fockian in SOSCF/NRSCF***

               *****************************************************
               *                     SUCCESS                       *
               *           SCF CONVERGED AFTER   1 CYCLES          *
               *****************************************************

Setting up the final grid:

General Integration Accuracy     IntAcc      ...  4.670
Radial Grid Type                 RadialGrid  ... Gauss-Chebyshev
Angular Grid (max. acc.)         AngularGrid ... Lebedev-302
Angular grid pruning method      GridPruning ... 3 (G Style)
Weight generation scheme         WeightScheme... Becke
Basis function cutoff            BFCut       ...    1.0000e-11
Integration weight cutoff        WCut        ...    1.0000e-14
Grids for H and He will be reduced by one unit

# of grid points (after initial pruning)     ...  17028 (   0.0 sec)
# of grid points (after weights+screening)   ...  16795 (   0.0 sec)
nearest neighbour list constructed           ...    0.0 sec
Grid point re-assignment to atoms done       ...    0.0 sec
Grid point division into batches done        ...    0.1 sec
Reduced shell lists constructed in    0.1 sec

Total number of grid points                  ...    16795
Total number of batches                      ...      265
Average number of points per batch           ...       63
Average number of grid points per atom       ...     4199
Average number of shells per batch           ...    14.66 (86.22%)
Average number of basis functions per batch  ...    28.20 (85.45%)
Average number of large shells per batch     ...    13.60 (92.79%)
Average number of large basis fcns per batch ...    26.06 (92.40%)
Maximum spatial batch extension              ...  18.84, 17.14, 16.88 au
Average spatial batch extension              ...   0.55,  0.55,  0.50 au

Final grid set up in    0.1 sec
Final integration                            ... done (   0.4 sec)
Change in XC energy                          ...    -0.000029423
Integrated number of electrons               ...    17.999983331
Previous integrated no of electrons          ...    18.000001759

----------------
TOTAL SCF ENERGY
----------------

Total Energy       :         -343.09229415 Eh           -9336.01596 eV

Components:
Nuclear Repulsion  :           17.34741162 Eh             472.04707 eV
Electronic Energy  :         -360.43970577 Eh           -9808.06303 eV
One Electron Energy:         -508.08027848 Eh          -13825.56726 eV
Two Electron Energy:          147.64057271 Eh            4017.50423 eV

Virial components:
Potential Energy   :         -685.20951349 Eh          -18645.49878 eV
Kinetic Energy     :          342.11721934 Eh            9309.48282 eV
Virial Ratio       :            2.00285012


DFT components:
N(Alpha)           :        8.999991665490 electrons
N(Beta)            :        8.999991665490 electrons
N(Total)           :       17.999983330980 electrons
E(X)               :      -18.742939770618 Eh       
E(C)               :       -0.794554565175 Eh       
E(XC)              :      -19.537494335793 Eh       
DFET-embed. en.    :        0.000000000000 Eh       

---------------
SCF CONVERGENCE
---------------

  Last Energy change         ...   -6.5764e-09  Tolerance :   1.0000e-08
  Last MAX-Density change    ...    3.0318e-05  Tolerance :   1.0000e-07
  Last RMS-Density change    ...    2.2641e-06  Tolerance :   5.0000e-09
  Last Orbital Gradient      ...    6.1480e-06  Tolerance :   1.0000e-05
  Last Orbital Rotation      ...    1.8850e-05  Tolerance :   1.0000e-05

             **** THE GBW FILE WAS UPDATED (phosphine_B3LYP_cc-pVDZ_OPT.gbw) ****
             **** DENSITY FILE WAS UPDATED (phosphine_B3LYP_cc-pVDZ_OPT.scfp) ****
             **** ENERGY FILE WAS UPDATED (phosphine_B3LYP_cc-pVDZ_OPT.en.tmp) ****
             **** THE GBW FILE WAS UPDATED (phosphine_B3LYP_cc-pVDZ_OPT.gbw) ****
             **** DENSITY FILE WAS UPDATED (phosphine_B3LYP_cc-pVDZ_OPT.scfp) ****
----------------
ORBITAL ENERGIES
----------------

  NO   OCC          E(Eh)            E(eV) 
   0   2.0000     -77.084323     -2097.5711 
   1   2.0000      -6.554538      -178.3580 
   2   2.0000      -4.716219      -128.3348 
   3   2.0000      -4.716195      -128.3342 
   4   2.0000      -4.712057      -128.2216 
   5   2.0000      -0.639709       -17.4074 
   6   2.0000      -0.377889       -10.2829 
   7   2.0000      -0.377739       -10.2788 
   8   2.0000      -0.273199        -7.4341 
   9   0.0000       0.035926         0.9776 
  10   0.0000       0.036577         0.9953 
  11   0.0000       0.052953         1.4409 
  12   0.0000       0.306680         8.3452 
  13   0.0000       0.307548         8.3688 
  14   0.0000       0.412462        11.2237 
  15   0.0000       0.433983        11.8093 
  16   0.0000       0.436384        11.8746 
  17   0.0000       0.436968        11.8905 
  18   0.0000       0.524686        14.2774 
  19   0.0000       0.526617        14.3300 
  20   0.0000       0.546515        14.8714 
  21   0.0000       0.690024        18.7765 
  22   0.0000       0.897043        24.4098 
  23   0.0000       0.898322        24.4446 
  24   0.0000       1.276019        34.7222 
  25   0.0000       1.349052        36.7096 
  26   0.0000       1.349195        36.7135 
  27   0.0000       1.534629        41.7594 
  28   0.0000       1.534975        41.7688 
  29   0.0000       1.635553        44.5057 
  30   0.0000       1.968452        53.5643 
  31   0.0000       2.040619        55.5281 
  32   0.0000       2.040874        55.5350 

                    ********************************
                    * MULLIKEN POPULATION ANALYSIS *
                    ********************************

-----------------------
MULLIKEN ATOMIC CHARGES
-----------------------
   0 P :    0.006896
   1 H :   -0.002562
   2 H :   -0.001840
   3 H :   -0.002495
Sum of atomic charges:   -0.0000000

--------------------------------
MULLIKEN REDUCED ORBITAL CHARGES
--------------------------------
  0 P s       :     5.704623  s :     5.704623
      pz      :     3.225696  p :     9.182761
      px      :     2.950362
      py      :     3.006703
      dz2     :     0.037242  d :     0.105720
      dxz     :     0.009754
      dyz     :     0.012852
      dx2y2   :     0.040519
      dxy     :     0.005353
  1 H s       :     0.984223  s :     0.984223
      pz      :     0.004015  p :     0.018339
      px      :     0.003111
      py      :     0.011212
  2 H s       :     0.983521  s :     0.983521
      pz      :     0.011341  p :     0.018319
      px      :     0.003129
      py      :     0.003850
  3 H s       :     0.984185  s :     0.984185
      pz      :     0.003997  p :     0.018309
      px      :     0.011342
      py      :     0.002971


                     *******************************
                     * LOEWDIN POPULATION ANALYSIS *
                     *******************************

----------------------
LOEWDIN ATOMIC CHARGES
----------------------
   0 P :    0.106862
   1 H :   -0.035639
   2 H :   -0.035144
   3 H :   -0.036079

-------------------------------
LOEWDIN REDUCED ORBITAL CHARGES
-------------------------------
  0 P s       :     5.406852  s :     5.406852
      pz      :     3.287048  p :     9.334864
      px      :     2.994249
      py      :     3.053568
      dz2     :     0.052395  d :     0.151421
      dxz     :     0.013017
      dyz     :     0.017892
      dx2y2   :     0.059903
      dxy     :     0.008215
  1 H s       :     0.984374  s :     0.984374
      pz      :     0.011097  p :     0.051265
      px      :     0.007285
      py      :     0.032883
  2 H s       :     0.983808  s :     0.983808
      pz      :     0.034951  p :     0.051336
      px      :     0.007301
      py      :     0.009084
  3 H s       :     0.984959  s :     0.984959
      pz      :     0.011058  p :     0.051120
      px      :     0.032693
      py      :     0.007370


                      *****************************
                      * MAYER POPULATION ANALYSIS *
                      *****************************

  NA   - Mulliken gross atomic population
  ZA   - Total nuclear charge
  QA   - Mulliken gross atomic charge
  VA   - Mayer's total valence
  BVA  - Mayer's bonded valence
  FA   - Mayer's free valence

  ATOM       NA         ZA         QA         VA         BVA        FA
  0 P     14.9931    15.0000     0.0069     2.9406     2.9406     0.0000
  1 H      1.0026     1.0000    -0.0026     0.9772     0.9772     0.0000
  2 H      1.0018     1.0000    -0.0018     0.9770     0.9770     0.0000
  3 H      1.0025     1.0000    -0.0025     0.9771     0.9771    -0.0000

  Mayer bond orders larger than 0.100000
B(  0-P ,  1-H ) :   0.9803 B(  0-P ,  2-H ) :   0.9801 B(  0-P ,  3-H ) :   0.9802 


-------
TIMINGS
-------

Total SCF time: 0 days 0 hours 0 min 1 sec 

Total time                  ....       1.582 sec
Sum of individual times     ....       1.172 sec  ( 74.1%)

Fock matrix formation       ....       0.800 sec  ( 50.6%)
  XC integration            ....       0.379 sec  ( 47.3% of F)
    Basis function eval.    ....       0.004 sec  (  1.0% of XC)
    Density eval.           ....       0.002 sec  (  0.5% of XC)
    XC-Functional eval.     ....       0.001 sec  (  0.4% of XC)
    XC-Potential eval.      ....       0.001 sec  (  0.4% of XC)
Diagonalization             ....       0.000 sec  (  0.0%)
Density matrix formation    ....       0.130 sec  (  8.2%)
Population analysis         ....       0.001 sec  (  0.0%)
Initial guess               ....       0.001 sec  (  0.1%)
Orbital Transformation      ....       0.000 sec  (  0.0%)
Orbital Orthonormalization  ....       0.000 sec  (  0.0%)
DIIS solution               ....       0.000 sec  (  0.0%)
SOSCF solution              ....       0.030 sec  (  1.9%)
Grid generation             ....       0.210 sec  ( 13.3%)

-------------------------   --------------------
FINAL SINGLE POINT ENERGY      -343.092294146720
-------------------------   --------------------

                                *** OPTIMIZATION RUN DONE ***

                            ***************************************
                            *     ORCA property calculations      *
                            ***************************************

                                    ---------------------
                                    Active property flags
                                    ---------------------
   (+) Dipole Moment


------------------------------------------------------------------------------
                       ORCA ELECTRIC PROPERTIES CALCULATION
------------------------------------------------------------------------------

Dipole Moment Calculation                       ... on
Quadrupole Moment Calculation                   ... off
Polarizability Calculation                      ... off
GBWName                                         ... phosphine_B3LYP_cc-pVDZ_OPT.gbw
Electron density file                           ... phosphine_B3LYP_cc-pVDZ_OPT.scfp
The origin for moment calculation is the CENTER OF MASS  = (-0.136350, -0.192026  0.332930)

-------------
DIPOLE MOMENT
-------------
                                X             Y             Z
Electronic contribution:     -0.60116      -0.84384       1.46269
Nuclear contribution   :      0.69180       0.97665      -1.69233
                        -----------------------------------------
Total Dipole Moment    :      0.09064       0.13281      -0.22965
                        -----------------------------------------
Magnitude (a.u.)       :      0.28034
Magnitude (Debye)      :      0.71257



--------------------
Rotational spectrum 
--------------------
 
Rotational constants in cm-1:     4.345405     4.341685     3.853276 
Rotational constants in MHz : 130271.958649 130160.455818 115518.310724 

 Dipole components along the rotational axes: 
x,y,z [a.u.] :    -0.002562    -0.000397    -0.280330 
x,y,z [Debye]:    -0.006513    -0.001009    -0.712541 

 

Timings for individual modules:

Sum of individual times         ...       36.695 sec (=   0.612 min)
GTO integral calculation        ...        6.790 sec (=   0.113 min)  18.5 %
SCF iterations                  ...       25.362 sec (=   0.423 min)  69.1 %
SCF Gradient evaluation         ...        3.291 sec (=   0.055 min)   9.0 %
Geometry relaxation             ...        1.253 sec (=   0.021 min)   3.4 %
                             ****ORCA TERMINATED NORMALLY****
TOTAL RUN TIME: 0 days 0 hours 0 minutes 41 seconds 439 msec
